s -t 0.137349460 -Hs 31 -Hd -2 -Ni 31 -Nx 55.63 -Ny 51.08 -Nz 0.00 -Ne 9.999025 -Nl AGT -Nw --- -Ma 0 -Md 1f000000 -Ms 0 -Mt 0 -Is 31.0 -Id -1.0 -It tcp -Il 1 -If 0 -Ii 0 -Iv 32 -Pn tcp -Ps 0 -Pa 0 -Pf 0 -Po 0 
r -t 0.137349460 -Hs 31 -Hd -2 -Ni 31 -Nx 55.63 -Ny 51.08 -Nz 0.00 -Ne 9.999025 -Nl RTR -Nw --- -Ma 0 -Md 1f000000 -Ms 0 -Mt 0 -Is 31.0 -Id -1.0 -It tcp -Il 1 -If 0 -Ii 0 -Iv 32 -Pn tcp -Ps 0 -Pa 0 -Pf 0 -Po 0 
s -t 0.137349460 -Hs 31 -Hd -2 -Ni 31 -Nx 55.63 -Ny 51.08 -Nz 0.00 -Ne 9.999025 -Nl RTR -Nw --- -Ma 0 -Md 1f000000 -Ms 0 -Mt 0 -Is 31.0 -Id -1.0 -It tcp -Il 1 -If 0 -Ii 0 -Iv 32 -Pn tcp -Ps 0 -Pa 0 -Pf 0 -Po 0 
s -t 0.137374460 -Hs 31 -Hd -2 -Ni 31 -Nx 55.63 -Ny 51.08 -Nz 0.00 -Ne 9.999025 -Nl MAC -Nw --- -Ma 0 -Md 1f000000 -Ms ffff0008 -Mt 0 -Is 31.0 -Id -1.0 -It tcp -Il 21 -If 0 -Ii 0 -Iv 32 -Pn tcp -Ps 0 -Pa 0 -Pf 0 -Po 0 
N -t 0.137374 -n 0 -e 99.999958
N -t 0.137375 -n 28 -e 9.999023
N -t 0.137375 -n 44 -e 9.999023
N -t 0.137375 -n 20 -e 9.999023
N -t 0.137375 -n 42 -e 9.999023
N -t 0.137375 -n 15 -e 9.999023
N -t 0.137375 -n 41 -e 9.999023
N -t 0.137375 -n 34 -e 9.999023
N -t 0.137375 -n 17 -e 9.999023
N -t 0.137375 -n 18 -e 9.999023
N -t 0.137375 -n 43 -e 9.999023
N -t 0.137375 -n 29 -e 9.999023
N -t 0.137375 -n 25 -e 9.999023
N -t 0.137375 -n 10 -e 9.999023
N -t 0.137375 -n 19 -e 9.999023
N -t 0.137375 -n 2 -e 9.999023
N -t 0.137375 -n 8 -e 9.999023
N -t 0.137375 -n 39 -e 9.999023
N -t 0.137375 -n 33 -e 9.999023
N -t 0.137375 -n 38 -e 9.999023
N -t 0.137375 -n 12 -e 9.999023
N -t 0.137375 -n 3 -e 9.999023
N -t 0.137375 -n 7 -e 9.999023
N -t 0.137375 -n 35 -e 9.999023
N -t 0.137375 -n 13 -e 9.999023
N -t 0.137375 -n 4 -e 9.999023
N -t 0.137375 -n 24 -e 9.999023
N -t 0.137375 -n 22 -e 9.999023
N -t 0.137375 -n 27 -e 9.999023
N -t 0.137375 -n 11 -e 9.999023
N -t 0.137375 -n 16 -e 9.999023
N -t 0.137375 -n 36 -e 9.999023
N -t 0.137375 -n 6 -e 9.999023
N -t 0.137375 -n 23 -e 9.999023
N -t 0.137375 -n 21 -e 9.999023
N -t 0.137375 -n 32 -e 9.999023
N -t 0.137375 -n 5 -e 9.999023
N -t 0.137375 -n 37 -e 9.999023
N -t 0.137375 -n 9 -e 9.999023
N -t 0.137375 -n 26 -e 9.999023
N -t 0.137375 -n 1 -e 9.999023
N -t 0.137375 -n 40 -e 9.999023
N -t 0.137375 -n 14 -e 9.999023
N -t 0.137375 -n 30 -e 9.999023
r -t 0.137458479 -Hs 0 -Hd -2 -Ni 0 -Nx 50.00 -Ny 50.00 -Nz 0.00 -Ne 99.999958 -Nl MAC -Nw --- -Ma 0 -Md 1f000000 -Ms ffff0008 -Mt 0 -Is 31.0 -Id -1.0 -It tcp -Il 1 -If 0 -Ii 0 -Iv 32 -Pn tcp -Ps 0 -Pa 0 -Pf 1 -Po 0 
r -t 0.137458503 -Hs 28 -Hd -2 -Ni 28 -Nx 43.38 -Ny 46.83 -Nz 0.00 -Ne 9.999023 -Nl MAC -Nw --- -Ma 0 -Md 1f000000 -Ms ffff0008 -Mt 0 -Is 31.0 -Id -1.0 -It tcp -Il 1 -If 0 -Ii 0 -Iv 32 -Pn tcp -Ps 0 -Pa 0 -Pf 1 -Po 0 
r -t 0.137458516 -Hs 44 -Hd -2 -Ni 44 -Nx 40.23 -Ny 58.21 -Nz 0.00 -Ne 9.999023 -Nl MAC -Nw --- -Ma 0 -Md 1f000000 -Ms ffff0008 -Mt 0 -Is 31.0 -Id -1.0 -It tcp -Il 1 -If 0 -Ii 0 -Iv 32 -Pn tcp -Ps 0 -Pa 0 -Pf 1 -Po 0 
r -t 0.137458517 -Hs 20 -Hd -2 -Ni 20 -Nx 72.63 -Ny 48.80 -Nz 0.00 -Ne 9.999023 -Nl MAC -Nw --- -Ma 0 -Md 1f000000 -Ms ffff0008 -Mt 0 -Is 31.0 -Id -1.0 -It tcp -Il 1 -If 0 -Ii 0 -Iv 32 -Pn tcp -Ps 0 -Pa 0 -Pf 1 -Po 0 
r -t 0.137458517 -Hs 42 -Hd -2 -Ni 42 -Nx 72.57 -Ny 47.64 -Nz 0.00 -Ne 9.999023 -Nl MAC -Nw --- -Ma 0 -Md 1f000000 -Ms ffff0008 -Mt 0 -Is 31.0 -Id -1.0 -It tcp -Il 1 -If 0 -Ii 0 -Iv 32 -Pn tcp -Ps 0 -Pa 0 -Pf 1 -Po 0 
r -t 0.137458518 -Hs 15 -Hd -2 -Ni 15 -Nx 48.21 -Ny 66.96 -Nz 0.00 -Ne 9.999023 -Nl MAC -Nw --- -Ma 0 -Md 1f000000 -Ms ffff0008 -Mt 0 -Is 31.0 -Id -1.0 -It tcp -Il 1 -If 0 -Ii 0 -Iv 32 -Pn tcp -Ps 0 -Pa 0 -Pf 1 -Po 0 
r -t 0.137458529 -Hs 41 -Hd -2 -Ni 41 -Nx 72.61 -Ny 38.88 -Nz 0.00 -Ne 9.999023 -Nl MAC -Nw --- -Ma 0 -Md 1f000000 -Ms ffff0008 -Mt 0 -Is 31.0 -Id -1.0 -It tcp -Il 1 -If 0 -Ii 0 -Iv 32 -Pn tcp -Ps 0 -Pa 0 -Pf 1 -Po 0 
r -t 0.137458532 -Hs 34 -Hd -2 -Ni 34 -Nx 77.25 -Ny 50.08 -Nz 0.00 -Ne 9.999023 -Nl MAC -Nw --- -Ma 0 -Md 1f000000 -Ms ffff0008 -Mt 0 -Is 31.0 -Id -1.0 -It tcp -Il 1 -If 0 -Ii 0 -Iv 32 -Pn tcp -Ps 0 -Pa 0 -Pf 1 -Po 0 
r -t 0.137458533 -Hs 17 -Hd -2 -Ni 17 -Nx 47.83 -Ny 30.51 -Nz 0.00 -Ne 9.999023 -Nl MAC -Nw --- -Ma 0 -Md 1f000000 -Ms ffff0008 -Mt 0 -Is 31.0 -Id -1.0 -It tcp -Il 1 -If 0 -Ii 0 -Iv 32 -Pn tcp -Ps 0 -Pa 0 -Pf 1 -Po 0 
r -t 0.137458541 -Hs 18 -Hd -2 -Ni 18 -Nx 41.45 -Ny 31.28 -Nz 0.00 -Ne 9.999023 -Nl MAC -Nw --- -Ma 0 -Md 1f000000 -Ms ffff0008 -Mt 0 -Is 31.0 -Id -1.0 -It tcp -Il 1 -If 0 -Ii 0 -Iv 32 -Pn tcp -Ps 0 -Pa 0 -Pf 1 -Po 0 
r -t 0.137458545 -Hs 43 -Hd -2 -Ni 43 -Nx 74.18 -Ny 68.98 -Nz 0.00 -Ne 9.999023 -Nl MAC -Nw --- -Ma 0 -Md 1f000000 -Ms ffff0008 -Mt 0 -Is 31.0 -Id -1.0 -It tcp -Il 1 -If 0 -Ii 0 -Iv 32 -Pn tcp -Ps 0 -Pa 0 -Pf 1 -Po 0 
r -t 0.137458547 -Hs 29 -Hd -2 -Ni 29 -Nx 32.54 -Ny 63.40 -Nz 0.00 -Ne 9.999023 -Nl MAC -Nw --- -Ma 0 -Md 1f000000 -Ms ffff0008 -Mt 0 -Is 31.0 -Id -1.0 -It tcp -Il 1 -If 0 -Ii 0 -Iv 32 -Pn tcp -Ps 0 -Pa 0 -Pf 1 -Po 0 
r -t 0.137458552 -Hs 25 -Hd -2 -Ni 25 -Nx 27.99 -Ny 47.99 -Nz 0.00 -Ne 9.999023 -Nl MAC -Nw --- -Ma 0 -Md 1f000000 -Ms ffff0008 -Mt 0 -Is 31.0 -Id -1.0 -It tcp -Il 1 -If 0 -Ii 0 -Iv 32 -Pn tcp -Ps 0 -Pa 0 -Pf 1 -Po 0 
r -t 0.137458553 -Hs 10 -Hd -2 -Ni 10 -Nx 45.95 -Ny 24.70 -Nz 0.00 -Ne 9.999023 -Nl MAC -Nw --- -Ma 0 -Md 1f000000 -Ms ffff0008 -Mt 0 -Is 31.0 -Id -1.0 -It tcp -Il 1 -If 0 -Ii 0 -Iv 32 -Pn tcp -Ps 0 -Pa 0 -Pf 1 -Po 0 
r -t 0.137458555 -Hs 19 -Hd -2 -Ni 19 -Nx 55.57 -Ny 79.77 -Nz 0.00 -Ne 9.999023 -Nl MAC -Nw --- -Ma 0 -Md 1f000000 -Ms ffff0008 -Mt 0 -Is 31.0 -Id -1.0 -It tcp -Il 1 -If 0 -Ii 0 -Iv 32 -Pn tcp -Ps 0 -Pa 0 -Pf 1 -Po 0 
r -t 0.137458564 -Hs 2 -Hd -2 -Ni 2 -Nx 87.05 -Ny 50.63 -Nz 0.00 -Ne 9.999023 -Nl MAC -Nw --- -Ma 0 -Md 1f000000 -Ms ffff0008 -Mt 0 -Is 31.0 -Id -1.0 -It tcp -Il 1 -If 0 -Ii 0 -Iv 32 -Pn tcp -Ps 0 -Pa 0 -Pf 1 -Po 0 
r -t 0.137458570 -Hs 8 -Hd -2 -Ni 8 -Nx 88.63 -Ny 54.85 -Nz 0.00 -Ne 9.999023 -Nl MAC -Nw --- -Ma 0 -Md 1f000000 -Ms ffff0008 -Mt 0 -Is 31.0 -Id -1.0 -It tcp -Il 1 -If 0 -Ii 0 -Iv 32 -Pn tcp -Ps 0 -Pa 0 -Pf 1 -Po 0 
r -t 0.137458577 -Hs 39 -Hd -2 -Ni 39 -Nx 90.28 -Ny 56.89 -Nz 0.00 -Ne 9.999023 -Nl MAC -Nw --- -Ma 0 -Md 1f000000 -Ms ffff0008 -Mt 0 -Is 31.0 -Id -1.0 -It tcp -Il 1 -If 0 -Ii 0 -Iv 32 -Pn tcp -Ps 0 -Pa 0 -Pf 1 -Po 0 
r -t 0.137458581 -Hs 33 -Hd -2 -Ni 33 -Nx 25.56 -Ny 30.51 -Nz 0.00 -Ne 9.999023 -Nl MAC -Nw --- -Ma 0 -Md 1f000000 -Ms ffff0008 -Mt 0 -Is 31.0 -Id -1.0 -It tcp -Il 1 -If 0 -Ii 0 -Iv 32 -Pn tcp -Ps 0 -Pa 0 -Pf 1 -Po 0 
r -t 0.137458582 -Hs 38 -Hd -2 -Ni 38 -Nx 82.79 -Ny 75.80 -Nz 0.00 -Ne 9.999023 -Nl MAC -Nw --- -Ma 0 -Md 1f000000 -Ms ffff0008 -Mt 0 -Is 31.0 -Id -1.0 -It tcp -Il 1 -If 0 -Ii 0 -Iv 32 -Pn tcp -Ps 0 -Pa 0 -Pf 1 -Po 0 
r -t 0.137458586 -Hs 12 -Hd -2 -Ni 12 -Nx 37.59 -Ny 84.50 -Nz 0.00 -Ne 9.999023 -Nl MAC -Nw --- -Ma 0 -Md 1f000000 -Ms ffff0008 -Mt 0 -Is 31.0 -Id -1.0 -It tcp -Il 1 -If 0 -Ii 0 -Iv 32 -Pn tcp -Ps 0 -Pa 0 -Pf 1 -Po 0 
r -t 0.137458587 -Hs 3 -Hd -2 -Ni 3 -Nx 88.23 -Ny 71.26 -Nz 0.00 -Ne 9.999023 -Nl MAC -Nw --- -Ma 0 -Md 1f000000 -Ms ffff0008 -Mt 0 -Is 31.0 -Id -1.0 -It tcp -Il 1 -If 0 -Ii 0 -Iv 32 -Pn tcp -Ps 0 -Pa 0 -Pf 1 -Po 0 
r -t 0.137458587 -Hs 7 -Hd -2 -Ni 7 -Nx 18.50 -Ny 60.69 -Nz 0.00 -Ne 9.999023 -Nl MAC -Nw --- -Ma 0 -Md 1f000000 -Ms ffff0008 -Mt 0 -Is 31.0 -Id -1.0 -It tcp -Il 1 -If 0 -Ii 0 -Iv 32 -Pn tcp -Ps 0 -Pa 0 -Pf 1 -Po 0 
r -t 0.137458591 -Hs 35 -Hd -2 -Ni 35 -Nx 36.73 -Ny 85.84 -Nz 0.00 -Ne 9.999023 -Nl MAC -Nw --- -Ma 0 -Md 1f000000 -Ms ffff0008 -Mt 0 -Is 31.0 -Id -1.0 -It tcp -Il 1 -If 0 -Ii 0 -Iv 32 -Pn tcp -Ps 0 -Pa 0 -Pf 1 -Po 0 
r -t 0.137458592 -Hs 13 -Hd -2 -Ni 13 -Nx 94.76 -Ny 44.83 -Nz 0.00 -Ne 9.999023 -Nl MAC -Nw --- -Ma 0 -Md 1f000000 -Ms ffff0008 -Mt 0 -Is 31.0 -Id -1.0 -It tcp -Il 1 -If 0 -Ii 0 -Iv 32 -Pn tcp -Ps 0 -Pa 0 -Pf 1 -Po 0 
r -t 0.137458592 -Hs 4 -Hd -2 -Ni 4 -Nx 34.59 -Ny 17.35 -Nz 0.00 -Ne 9.999023 -Nl MAC -Nw --- -Ma 0 -Md 1f000000 -Ms ffff0008 -Mt 0 -Is 31.0 -Id -1.0 -It tcp -Il 1 -If 0 -Ii 0 -Iv 32 -Pn tcp -Ps 0 -Pa 0 -Pf 1 -Po 0 
r -t 0.137458594 -Hs 24 -Hd -2 -Ni 24 -Nx 16.23 -Ny 42.47 -Nz 0.00 -Ne 9.999023 -Nl MAC -Nw --- -Ma 0 -Md 1f000000 -Ms ffff0008 -Mt 0 -Is 31.0 -Id -1.0 -It tcp -Il 1 -If 0 -Ii 0 -Iv 32 -Pn tcp -Ps 0 -Pa 0 -Pf 1 -Po 0 
r -t 0.137458600 -Hs 22 -Hd -2 -Ni 22 -Nx 72.02 -Ny 90.02 -Nz 0.00 -Ne 9.999023 -Nl MAC -Nw --- -Ma 0 -Md 1f000000 -Ms ffff0008 -Mt 0 -Is 31.0 -Id -1.0 -It tcp -Il 1 -If 0 -Ii 0 -Iv 32 -Pn tcp -Ps 0 -Pa 0 -Pf 1 -Po 0 
r -t 0.137458603 -Hs 27 -Hd -2 -Ni 27 -Nx 13.32 -Ny 58.31 -Nz 0.00 -Ne 9.999023 -Nl MAC -Nw --- -Ma 0 -Md 1f000000 -Ms ffff0008 -Mt 0 -Is 31.0 -Id -1.0 -It tcp -Il 1 -If 0 -Ii 0 -Iv 32 -Pn tcp -Ps 0 -Pa 0 -Pf 1 -Po 0 
r -t 0.137458607 -Hs 11 -Hd -2 -Ni 11 -Nx 11.73 -Ny 56.15 -Nz 0.00 -Ne 9.999023 -Nl MAC -Nw --- -Ma 0 -Md 1f000000 -Ms ffff0008 -Mt 0 -Is 31.0 -Id -1.0 -It tcp -Il 1 -If 0 -Ii 0 -Iv 32 -Pn tcp -Ps 0 -Pa 0 -Pf 1 -Po 0 
r -t 0.137458611 -Hs 16 -Hd -2 -Ni 16 -Nx 79.52 -Ny 12.39 -Nz 0.00 -Ne 9.999023 -Nl MAC -Nw --- -Ma 0 -Md 1f000000 -Ms ffff0008 -Mt 0 -Is 31.0 -Id -1.0 -It tcp -Il 1 -If 0 -Ii 0 -Iv 32 -Pn tcp -Ps 0 -Pa 0 -Pf 1 -Po 0 
r -t 0.137458615 -Hs 36 -Hd -2 -Ni 36 -Nx 42.82 -Ny 95.95 -Nz 0.00 -Ne 9.999023 -Nl MAC -Nw --- -Ma 0 -Md 1f000000 -Ms ffff0008 -Mt 0 -Is 31.0 -Id -1.0 -It tcp -Il 1 -If 0 -Ii 0 -Iv 32 -Pn tcp -Ps 0 -Pa 0 -Pf 1 -Po 0 
r -t 0.137458615 -Hs 6 -Hd -2 -Ni 6 -Nx 87.85 -Ny 84.86 -Nz 0.00 -Ne 9.999023 -Nl MAC -Nw --- -Ma 0 -Md 1f000000 -Ms ffff0008 -Mt 0 -Is 31.0 -Id -1.0 -It tcp -Il 1 -If 0 -Ii 0 -Iv 32 -Pn tcp -Ps 0 -Pa 0 -Pf 1 -Po 0 
r -t 0.137458617 -Hs 23 -Hd -2 -Ni 23 -Nx 74.18 -Ny 7.54 -Nz 0.00 -Ne 9.999023 -Nl MAC -Nw --- -Ma 0 -Md 1f000000 -Ms ffff0008 -Mt 0 -Is 31.0 -Id -1.0 -It tcp -Il 1 -If 0 -Ii 0 -Iv 32 -Pn tcp -Ps 0 -Pa 0 -Pf 1 -Po 0 
r -t 0.137458621 -Hs 21 -Hd -2 -Ni 21 -Nx 32.87 -Ny 94.01 -Nz 0.00 -Ne 9.999023 -Nl MAC -Nw --- -Ma 0 -Md 1f000000 -Ms ffff0008 -Mt 0 -Is 31.0 -Id -1.0 -It tcp -Il 1 -If 0 -Ii 0 -Iv 32 -Pn tcp -Ps 0 -Pa 0 -Pf 1 -Po 0 
r -t 0.137458632 -Hs 32 -Hd -2 -Ni 32 -Nx 35.16 -Ny 3.49 -Nz 0.00 -Ne 9.999023 -Nl MAC -Nw --- -Ma 0 -Md 1f000000 -Ms ffff0008 -Mt 0 -Is 31.0 -Id -1.0 -It tcp -Il 1 -If 0 -Ii 0 -Iv 32 -Pn tcp -Ps 0 -Pa 0 -Pf 1 -Po 0 
r -t 0.137458633 -Hs 5 -Hd -2 -Ni 5 -Nx 20.99 -Ny 12.10 -Nz 0.00 -Ne 9.999023 -Nl MAC -Nw --- -Ma 0 -Md 1f000000 -Ms ffff0008 -Mt 0 -Is 31.0 -Id -1.0 -It tcp -Il 1 -If 0 -Ii 0 -Iv 32 -Pn tcp -Ps 0 -Pa 0 -Pf 1 -Po 0 
r -t 0.137458639 -Hs 37 -Hd -2 -Ni 37 -Nx 2.26 -Ny 43.57 -Nz 0.00 -Ne 9.999023 -Nl MAC -Nw --- -Ma 0 -Md 1f000000 -Ms ffff0008 -Mt 0 -Is 31.0 -Id -1.0 -It tcp -Il 1 -If 0 -Ii 0 -Iv 32 -Pn tcp -Ps 0 -Pa 0 -Pf 1 -Po 0 
r -t 0.137458641 -Hs 9 -Hd -2 -Ni 9 -Nx 1.25 -Ny 52.63 -Nz 0.00 -Ne 9.999023 -Nl MAC -Nw --- -Ma 0 -Md 1f000000 -Ms ffff0008 -Mt 0 -Is 31.0 -Id -1.0 -It tcp -Il 1 -If 0 -Ii 0 -Iv 32 -Pn tcp -Ps 0 -Pa 0 -Pf 1 -Po 0 
r -t 0.137458642 -Hs 26 -Hd -2 -Ni 26 -Nx 18.72 -Ny 91.56 -Nz 0.00 -Ne 9.999023 -Nl MAC -Nw --- -Ma 0 -Md 1f000000 -Ms ffff0008 -Mt 0 -Is 31.0 -Id -1.0 -It tcp -Il 1 -If 0 -Ii 0 -Iv 32 -Pn tcp -Ps 0 -Pa 0 -Pf 1 -Po 0 
r -t 0.137458651 -Hs 1 -Hd -2 -Ni 1 -Nx 0.40 -Ny 67.11 -Nz 0.00 -Ne 9.999023 -Nl MAC -Nw --- -Ma 0 -Md 1f000000 -Ms ffff0008 -Mt 0 -Is 31.0 -Id -1.0 -It tcp -Il 1 -If 0 -Ii 0 -Iv 32 -Pn tcp -Ps 0 -Pa 0 -Pf 1 -Po 0 
r -t 0.137458652 -Hs 40 -Hd -2 -Ni 40 -Nx 25.48 -Ny 1.89 -Nz 0.00 -Ne 9.999023 -Nl MAC -Nw --- -Ma 0 -Md 1f000000 -Ms ffff0008 -Mt 0 -Is 31.0 -Id -1.0 -It tcp -Il 1 -If 0 -Ii 0 -Iv 32 -Pn tcp -Ps 0 -Pa 0 -Pf 1 -Po 0 
r -t 0.137458673 -Hs 14 -Hd -2 -Ni 14 -Nx 15.64 -Ny 0.94 -Nz 0.00 -Ne 9.999023 -Nl MAC -Nw --- -Ma 0 -Md 1f000000 -Ms ffff0008 -Mt 0 -Is 31.0 -Id -1.0 -It tcp -Il 1 -If 0 -Ii 0 -Iv 32 -Pn tcp -Ps 0 -Pa 0 -Pf 1 -Po 0 
r -t 0.137458677 -Hs 30 -Hd -2 -Ni 30 -Nx 99.29 -Ny 99.68 -Nz 0.00 -Ne 9.999023 -Nl MAC -Nw --- -Ma 0 -Md 1f000000 -Ms ffff0008 -Mt 0 -Is 31.0 -Id -1.0 -It tcp -Il 1 -If 0 -Ii 0 -Iv 32 -Pn tcp -Ps 0 -Pa 0 -Pf 1 -Po 0 
r -t 0.137483479 -Hs 0 -Hd -2 -Ni 0 -Nx 50.00 -Ny 50.00 -Nz 0.00 -Ne 99.999958 -Nl RTR -Nw --- -Ma 0 -Md 1f000000 -Ms ffff0008 -Mt 0 -Is 31.0 -Id -1.0 -It tcp -Il 1 -If 0 -Ii 0 -Iv 32 -Pn tcp -Ps 0 -Pa 0 -Pf 1 -Po 0 
r -t 0.137483479 -Hs 0 -Hd -2 -Ni 0 -Nx 50.00 -Ny 50.00 -Nz 0.00 -Ne 99.999958 -Nl AGT -Nw --- -Ma 0 -Md 1f000000 -Ms ffff0008 -Mt 0 -Is 31.0 -Id -1.0 -It tcp -Il 1 -If 0 -Ii 0 -Iv 32 -Pn tcp -Ps 0 -Pa 0 -Pf 1 -Po 0 
r -t 0.137483503 -Hs 28 -Hd -2 -Ni 28 -Nx 43.38 -Ny 46.83 -Nz 0.00 -Ne 9.999023 -Nl RTR -Nw --- -Ma 0 -Md 1f000000 -Ms ffff0008 -Mt 0 -Is 31.0 -Id -1.0 -It tcp -Il 1 -If 0 -Ii 0 -Iv 32 -Pn tcp -Ps 0 -Pa 0 -Pf 1 -Po 0 
r -t 0.137483503 -Hs 28 -Hd -2 -Ni 28 -Nx 43.38 -Ny 46.83 -Nz 0.00 -Ne 9.999023 -Nl AGT -Nw --- -Ma 0 -Md 1f000000 -Ms ffff0008 -Mt 0 -Is 31.0 -Id -1.0 -It tcp -Il 1 -If 0 -Ii 0 -Iv 32 -Pn tcp -Ps 0 -Pa 0 -Pf 1 -Po 0 
r -t 0.137483516 -Hs 44 -Hd -2 -Ni 44 -Nx 40.23 -Ny 58.21 -Nz 0.00 -Ne 9.999023 -Nl RTR -Nw --- -Ma 0 -Md 1f000000 -Ms ffff0008 -Mt 0 -Is 31.0 -Id -1.0 -It tcp -Il 1 -If 0 -Ii 0 -Iv 32 -Pn tcp -Ps 0 -Pa 0 -Pf 1 -Po 0 
r -t 0.137483516 -Hs 44 -Hd -2 -Ni 44 -Nx 40.23 -Ny 58.21 -Nz 0.00 -Ne 9.999023 -Nl AGT -Nw --- -Ma 0 -Md 1f000000 -Ms ffff0008 -Mt 0 -Is 31.0 -Id -1.0 -It tcp -Il 1 -If 0 -Ii 0 -Iv 32 -Pn tcp -Ps 0 -Pa 0 -Pf 1 -Po 0 
r -t 0.137483517 -Hs 20 -Hd -2 -Ni 20 -Nx 72.63 -Ny 48.80 -Nz 0.00 -Ne 9.999023 -Nl RTR -Nw --- -Ma 0 -Md 1f000000 -Ms ffff0008 -Mt 0 -Is 31.0 -Id -1.0 -It tcp -Il 1 -If 0 -Ii 0 -Iv 32 -Pn tcp -Ps 0 -Pa 0 -Pf 1 -Po 0 
r -t 0.137483517 -Hs 20 -Hd -2 -Ni 20 -Nx 72.63 -Ny 48.80 -Nz 0.00 -Ne 9.999023 -Nl AGT -Nw --- -Ma 0 -Md 1f000000 -Ms ffff0008 -Mt 0 -Is 31.0 -Id -1.0 -It tcp -Il 1 -If 0 -Ii 0 -Iv 32 -Pn tcp -Ps 0 -Pa 0 -Pf 1 -Po 0 
r -t 0.137483517 -Hs 42 -Hd -2 -Ni 42 -Nx 72.57 -Ny 47.64 -Nz 0.00 -Ne 9.999023 -Nl RTR -Nw --- -Ma 0 -Md 1f000000 -Ms ffff0008 -Mt 0 -Is 31.0 -Id -1.0 -It tcp -Il 1 -If 0 -Ii 0 -Iv 32 -Pn tcp -Ps 0 -Pa 0 -Pf 1 -Po 0 
r -t 0.137483517 -Hs 42 -Hd -2 -Ni 42 -Nx 72.57 -Ny 47.64 -Nz 0.00 -Ne 9.999023 -Nl AGT -Nw --- -Ma 0 -Md 1f000000 -Ms ffff0008 -Mt 0 -Is 31.0 -Id -1.0 -It tcp -Il 1 -If 0 -Ii 0 -Iv 32 -Pn tcp -Ps 0 -Pa 0 -Pf 1 -Po 0 
r -t 0.137483518 -Hs 15 -Hd -2 -Ni 15 -Nx 48.21 -Ny 66.96 -Nz 0.00 -Ne 9.999023 -Nl RTR -Nw --- -Ma 0 -Md 1f000000 -Ms ffff0008 -Mt 0 -Is 31.0 -Id -1.0 -It tcp -Il 1 -If 0 -Ii 0 -Iv 32 -Pn tcp -Ps 0 -Pa 0 -Pf 1 -Po 0 
r -t 0.137483518 -Hs 15 -Hd -2 -Ni 15 -Nx 48.21 -Ny 66.96 -Nz 0.00 -Ne 9.999023 -Nl AGT -Nw --- -Ma 0 -Md 1f000000 -Ms ffff0008 -Mt 0 -Is 31.0 -Id -1.0 -It tcp -Il 1 -If 0 -Ii 0 -Iv 32 -Pn tcp -Ps 0 -Pa 0 -Pf 1 -Po 0 
r -t 0.137483529 -Hs 41 -Hd -2 -Ni 41 -Nx 72.61 -Ny 38.88 -Nz 0.00 -Ne 9.999023 -Nl RTR -Nw --- -Ma 0 -Md 1f000000 -Ms ffff0008 -Mt 0 -Is 31.0 -Id -1.0 -It tcp -Il 1 -If 0 -Ii 0 -Iv 32 -Pn tcp -Ps 0 -Pa 0 -Pf 1 -Po 0 
r -t 0.137483529 -Hs 41 -Hd -2 -Ni 41 -Nx 72.61 -Ny 38.88 -Nz 0.00 -Ne 9.999023 -Nl AGT -Nw --- -Ma 0 -Md 1f000000 -Ms ffff0008 -Mt 0 -Is 31.0 -Id -1.0 -It tcp -Il 1 -If 0 -Ii 0 -Iv 32 -Pn tcp -Ps 0 -Pa 0 -Pf 1 -Po 0 
r -t 0.137483532 -Hs 34 -Hd -2 -Ni 34 -Nx 77.25 -Ny 50.08 -Nz 0.00 -Ne 9.999023 -Nl RTR -Nw --- -Ma 0 -Md 1f000000 -Ms ffff0008 -Mt 0 -Is 31.0 -Id -1.0 -It tcp -Il 1 -If 0 -Ii 0 -Iv 32 -Pn tcp -Ps 0 -Pa 0 -Pf 1 -Po 0 
r -t 0.137483532 -Hs 34 -Hd -2 -Ni 34 -Nx 77.25 -Ny 50.08 -Nz 0.00 -Ne 9.999023 -Nl AGT -Nw --- -Ma 0 -Md 1f000000 -Ms ffff0008 -Mt 0 -Is 31.0 -Id -1.0 -It tcp -Il 1 -If 0 -Ii 0 -Iv 32 -Pn tcp -Ps 0 -Pa 0 -Pf 1 -Po 0 
r -t 0.137483533 -Hs 17 -Hd -2 -Ni 17 -Nx 47.83 -Ny 30.51 -Nz 0.00 -Ne 9.999023 -Nl RTR -Nw --- -Ma 0 -Md 1f000000 -Ms ffff0008 -Mt 0 -Is 31.0 -Id -1.0 -It tcp -Il 1 -If 0 -Ii 0 -Iv 32 -Pn tcp -Ps 0 -Pa 0 -Pf 1 -Po 0 
r -t 0.137483533 -Hs 17 -Hd -2 -Ni 17 -Nx 47.83 -Ny 30.51 -Nz 0.00 -Ne 9.999023 -Nl AGT -Nw --- -Ma 0 -Md 1f000000 -Ms ffff0008 -Mt 0 -Is 31.0 -Id -1.0 -It tcp -Il 1 -If 0 -Ii 0 -Iv 32 -Pn tcp -Ps 0 -Pa 0 -Pf 1 -Po 0 
r -t 0.137483541 -Hs 18 -Hd -2 -Ni 18 -Nx 41.45 -Ny 31.28 -Nz 0.00 -Ne 9.999023 -Nl RTR -Nw --- -Ma 0 -Md 1f000000 -Ms ffff0008 -Mt 0 -Is 31.0 -Id -1.0 -It tcp -Il 1 -If 0 -Ii 0 -Iv 32 -Pn tcp -Ps 0 -Pa 0 -Pf 1 -Po 0 
r -t 0.137483541 -Hs 18 -Hd -2 -Ni 18 -Nx 41.45 -Ny 31.28 -Nz 0.00 -Ne 9.999023 -Nl AGT -Nw --- -Ma 0 -Md 1f000000 -Ms ffff0008 -Mt 0 -Is 31.0 -Id -1.0 -It tcp -Il 1 -If 0 -Ii 0 -Iv 32 -Pn tcp -Ps 0 -Pa 0 -Pf 1 -Po 0 
r -t 0.137483545 -Hs 43 -Hd -2 -Ni 43 -Nx 74.18 -Ny 68.98 -Nz 0.00 -Ne 9.999023 -Nl RTR -Nw --- -Ma 0 -Md 1f000000 -Ms ffff0008 -Mt 0 -Is 31.0 -Id -1.0 -It tcp -Il 1 -If 0 -Ii 0 -Iv 32 -Pn tcp -Ps 0 -Pa 0 -Pf 1 -Po 0 
r -t 0.137483545 -Hs 43 -Hd -2 -Ni 43 -Nx 74.18 -Ny 68.98 -Nz 0.00 -Ne 9.999023 -Nl AGT -Nw --- -Ma 0 -Md 1f000000 -Ms ffff0008 -Mt 0 -Is 31.0 -Id -1.0 -It tcp -Il 1 -If 0 -Ii 0 -Iv 32 -Pn tcp -Ps 0 -Pa 0 -Pf 1 -Po 0 
r -t 0.137483547 -Hs 29 -Hd -2 -Ni 29 -Nx 32.54 -Ny 63.40 -Nz 0.00 -Ne 9.999023 -Nl RTR -Nw --- -Ma 0 -Md 1f000000 -Ms ffff0008 -Mt 0 -Is 31.0 -Id -1.0 -It tcp -Il 1 -If 0 -Ii 0 -Iv 32 -Pn tcp -Ps 0 -Pa 0 -Pf 1 -Po 0 
r -t 0.137483547 -Hs 29 -Hd -2 -Ni 29 -Nx 32.54 -Ny 63.40 -Nz 0.00 -Ne 9.999023 -Nl AGT -Nw --- -Ma 0 -Md 1f000000 -Ms ffff0008 -Mt 0 -Is 31.0 -Id -1.0 -It tcp -Il 1 -If 0 -Ii 0 -Iv 32 -Pn tcp -Ps 0 -Pa 0 -Pf 1 -Po 0 
r -t 0.137483552 -Hs 25 -Hd -2 -Ni 25 -Nx 27.99 -Ny 47.99 -Nz 0.00 -Ne 9.999023 -Nl RTR -Nw --- -Ma 0 -Md 1f000000 -Ms ffff0008 -Mt 0 -Is 31.0 -Id -1.0 -It tcp -Il 1 -If 0 -Ii 0 -Iv 32 -Pn tcp -Ps 0 -Pa 0 -Pf 1 -Po 0 
r -t 0.137483552 -Hs 25 -Hd -2 -Ni 25 -Nx 27.99 -Ny 47.99 -Nz 0.00 -Ne 9.999023 -Nl AGT -Nw --- -Ma 0 -Md 1f000000 -Ms ffff0008 -Mt 0 -Is 31.0 -Id -1.0 -It tcp -Il 1 -If 0 -Ii 0 -Iv 32 -Pn tcp -Ps 0 -Pa 0 -Pf 1 -Po 0 
r -t 0.137483553 -Hs 10 -Hd -2 -Ni 10 -Nx 45.95 -Ny 24.70 -Nz 0.00 -Ne 9.999023 -Nl RTR -Nw --- -Ma 0 -Md 1f000000 -Ms ffff0008 -Mt 0 -Is 31.0 -Id -1.0 -It tcp -Il 1 -If 0 -Ii 0 -Iv 32 -Pn tcp -Ps 0 -Pa 0 -Pf 1 -Po 0 
r -t 0.137483553 -Hs 10 -Hd -2 -Ni 10 -Nx 45.95 -Ny 24.70 -Nz 0.00 -Ne 9.999023 -Nl AGT -Nw --- -Ma 0 -Md 1f000000 -Ms ffff0008 -Mt 0 -Is 31.0 -Id -1.0 -It tcp -Il 1 -If 0 -Ii 0 -Iv 32 -Pn tcp -Ps 0 -Pa 0 -Pf 1 -Po 0 
r -t 0.137483555 -Hs 19 -Hd -2 -Ni 19 -Nx 55.57 -Ny 79.77 -Nz 0.00 -Ne 9.999023 -Nl RTR -Nw --- -Ma 0 -Md 1f000000 -Ms ffff0008 -Mt 0 -Is 31.0 -Id -1.0 -It tcp -Il 1 -If 0 -Ii 0 -Iv 32 -Pn tcp -Ps 0 -Pa 0 -Pf 1 -Po 0 
r -t 0.137483555 -Hs 19 -Hd -2 -Ni 19 -Nx 55.57 -Ny 79.77 -Nz 0.00 -Ne 9.999023 -Nl AGT -Nw --- -Ma 0 -Md 1f000000 -Ms ffff0008 -Mt 0 -Is 31.0 -Id -1.0 -It tcp -Il 1 -If 0 -Ii 0 -Iv 32 -Pn tcp -Ps 0 -Pa 0 -Pf 1 -Po 0 
r -t 0.137483564 -Hs 2 -Hd -2 -Ni 2 -Nx 87.05 -Ny 50.63 -Nz 0.00 -Ne 9.999023 -Nl RTR -Nw --- -Ma 0 -Md 1f000000 -Ms ffff0008 -Mt 0 -Is 31.0 -Id -1.0 -It tcp -Il 1 -If 0 -Ii 0 -Iv 32 -Pn tcp -Ps 0 -Pa 0 -Pf 1 -Po 0 
r -t 0.137483564 -Hs 2 -Hd -2 -Ni 2 -Nx 87.05 -Ny 50.63 -Nz 0.00 -Ne 9.999023 -Nl AGT -Nw --- -Ma 0 -Md 1f000000 -Ms ffff0008 -Mt 0 -Is 31.0 -Id -1.0 -It tcp -Il 1 -If 0 -Ii 0 -Iv 32 -Pn tcp -Ps 0 -Pa 0 -Pf 1 -Po 0 
r -t 0.137483570 -Hs 8 -Hd -2 -Ni 8 -Nx 88.63 -Ny 54.85 -Nz 0.00 -Ne 9.999023 -Nl RTR -Nw --- -Ma 0 -Md 1f000000 -Ms ffff0008 -Mt 0 -Is 31.0 -Id -1.0 -It tcp -Il 1 -If 0 -Ii 0 -Iv 32 -Pn tcp -Ps 0 -Pa 0 -Pf 1 -Po 0 
r -t 0.137483570 -Hs 8 -Hd -2 -Ni 8 -Nx 88.63 -Ny 54.85 -Nz 0.00 -Ne 9.999023 -Nl AGT -Nw --- -Ma 0 -Md 1f000000 -Ms ffff0008 -Mt 0 -Is 31.0 -Id -1.0 -It tcp -Il 1 -If 0 -Ii 0 -Iv 32 -Pn tcp -Ps 0 -Pa 0 -Pf 1 -Po 0 
r -t 0.137483577 -Hs 39 -Hd -2 -Ni 39 -Nx 90.28 -Ny 56.89 -Nz 0.00 -Ne 9.999023 -Nl RTR -Nw --- -Ma 0 -Md 1f000000 -Ms ffff0008 -Mt 0 -Is 31.0 -Id -1.0 -It tcp -Il 1 -If 0 -Ii 0 -Iv 32 -Pn tcp -Ps 0 -Pa 0 -Pf 1 -Po 0 
r -t 0.137483577 -Hs 39 -Hd -2 -Ni 39 -Nx 90.28 -Ny 56.89 -Nz 0.00 -Ne 9.999023 -Nl AGT -Nw --- -Ma 0 -Md 1f000000 -Ms ffff0008 -Mt 0 -Is 31.0 -Id -1.0 -It tcp -Il 1 -If 0 -Ii 0 -Iv 32 -Pn tcp -Ps 0 -Pa 0 -Pf 1 -Po 0 
r -t 0.137483581 -Hs 33 -Hd -2 -Ni 33 -Nx 25.56 -Ny 30.51 -Nz 0.00 -Ne 9.999023 -Nl RTR -Nw --- -Ma 0 -Md 1f000000 -Ms ffff0008 -Mt 0 -Is 31.0 -Id -1.0 -It tcp -Il 1 -If 0 -Ii 0 -Iv 32 -Pn tcp -Ps 0 -Pa 0 -Pf 1 -Po 0 
r -t 0.137483581 -Hs 33 -Hd -2 -Ni 33 -Nx 25.56 -Ny 30.51 -Nz 0.00 -Ne 9.999023 -Nl AGT -Nw --- -Ma 0 -Md 1f000000 -Ms ffff0008 -Mt 0 -Is 31.0 -Id -1.0 -It tcp -Il 1 -If 0 -Ii 0 -Iv 32 -Pn tcp -Ps 0 -Pa 0 -Pf 1 -Po 0 
r -t 0.137483582 -Hs 38 -Hd -2 -Ni 38 -Nx 82.79 -Ny 75.80 -Nz 0.00 -Ne 9.999023 -Nl RTR -Nw --- -Ma 0 -Md 1f000000 -Ms ffff0008 -Mt 0 -Is 31.0 -Id -1.0 -It tcp -Il 1 -If 0 -Ii 0 -Iv 32 -Pn tcp -Ps 0 -Pa 0 -Pf 1 -Po 0 
r -t 0.137483582 -Hs 38 -Hd -2 -Ni 38 -Nx 82.79 -Ny 75.80 -Nz 0.00 -Ne 9.999023 -Nl AGT -Nw --- -Ma 0 -Md 1f000000 -Ms ffff0008 -Mt 0 -Is 31.0 -Id -1.0 -It tcp -Il 1 -If 0 -Ii 0 -Iv 32 -Pn tcp -Ps 0 -Pa 0 -Pf 1 -Po 0 
r -t 0.137483586 -Hs 12 -Hd -2 -Ni 12 -Nx 37.59 -Ny 84.50 -Nz 0.00 -Ne 9.999023 -Nl RTR -Nw --- -Ma 0 -Md 1f000000 -Ms ffff0008 -Mt 0 -Is 31.0 -Id -1.0 -It tcp -Il 1 -If 0 -Ii 0 -Iv 32 -Pn tcp -Ps 0 -Pa 0 -Pf 1 -Po 0 
r -t 0.137483586 -Hs 12 -Hd -2 -Ni 12 -Nx 37.59 -Ny 84.50 -Nz 0.00 -Ne 9.999023 -Nl AGT -Nw --- -Ma 0 -Md 1f000000 -Ms ffff0008 -Mt 0 -Is 31.0 -Id -1.0 -It tcp -Il 1 -If 0 -Ii 0 -Iv 32 -Pn tcp -Ps 0 -Pa 0 -Pf 1 -Po 0 
r -t 0.137483587 -Hs 3 -Hd -2 -Ni 3 -Nx 88.23 -Ny 71.26 -Nz 0.00 -Ne 9.999023 -Nl RTR -Nw --- -Ma 0 -Md 1f000000 -Ms ffff0008 -Mt 0 -Is 31.0 -Id -1.0 -It tcp -Il 1 -If 0 -Ii 0 -Iv 32 -Pn tcp -Ps 0 -Pa 0 -Pf 1 -Po 0 
r -t 0.137483587 -Hs 3 -Hd -2 -Ni 3 -Nx 88.23 -Ny 71.26 -Nz 0.00 -Ne 9.999023 -Nl AGT -Nw --- -Ma 0 -Md 1f000000 -Ms ffff0008 -Mt 0 -Is 31.0 -Id -1.0 -It tcp -Il 1 -If 0 -Ii 0 -Iv 32 -Pn tcp -Ps 0 -Pa 0 -Pf 1 -Po 0 
r -t 0.137483587 -Hs 7 -Hd -2 -Ni 7 -Nx 18.50 -Ny 60.69 -Nz 0.00 -Ne 9.999023 -Nl RTR -Nw --- -Ma 0 -Md 1f000000 -Ms ffff0008 -Mt 0 -Is 31.0 -Id -1.0 -It tcp -Il 1 -If 0 -Ii 0 -Iv 32 -Pn tcp -Ps 0 -Pa 0 -Pf 1 -Po 0 
r -t 0.137483587 -Hs 7 -Hd -2 -Ni 7 -Nx 18.50 -Ny 60.69 -Nz 0.00 -Ne 9.999023 -Nl AGT -Nw --- -Ma 0 -Md 1f000000 -Ms ffff0008 -Mt 0 -Is 31.0 -Id -1.0 -It tcp -Il 1 -If 0 -Ii 0 -Iv 32 -Pn tcp -Ps 0 -Pa 0 -Pf 1 -Po 0 
r -t 0.137483591 -Hs 35 -Hd -2 -Ni 35 -Nx 36.73 -Ny 85.84 -Nz 0.00 -Ne 9.999023 -Nl RTR -Nw --- -Ma 0 -Md 1f000000 -Ms ffff0008 -Mt 0 -Is 31.0 -Id -1.0 -It tcp -Il 1 -If 0 -Ii 0 -Iv 32 -Pn tcp -Ps 0 -Pa 0 -Pf 1 -Po 0 
r -t 0.137483591 -Hs 35 -Hd -2 -Ni 35 -Nx 36.73 -Ny 85.84 -Nz 0.00 -Ne 9.999023 -Nl AGT -Nw --- -Ma 0 -Md 1f000000 -Ms ffff0008 -Mt 0 -Is 31.0 -Id -1.0 -It tcp -Il 1 -If 0 -Ii 0 -Iv 32 -Pn tcp -Ps 0 -Pa 0 -Pf 1 -Po 0 
r -t 0.137483592 -Hs 13 -Hd -2 -Ni 13 -Nx 94.76 -Ny 44.83 -Nz 0.00 -Ne 9.999023 -Nl RTR -Nw --- -Ma 0 -Md 1f000000 -Ms ffff0008 -Mt 0 -Is 31.0 -Id -1.0 -It tcp -Il 1 -If 0 -Ii 0 -Iv 32 -Pn tcp -Ps 0 -Pa 0 -Pf 1 -Po 0 
r -t 0.137483592 -Hs 13 -Hd -2 -Ni 13 -Nx 94.76 -Ny 44.83 -Nz 0.00 -Ne 9.999023 -Nl AGT -Nw --- -Ma 0 -Md 1f000000 -Ms ffff0008 -Mt 0 -Is 31.0 -Id -1.0 -It tcp -Il 1 -If 0 -Ii 0 -Iv 32 -Pn tcp -Ps 0 -Pa 0 -Pf 1 -Po 0 
r -t 0.137483592 -Hs 4 -Hd -2 -Ni 4 -Nx 34.59 -Ny 17.35 -Nz 0.00 -Ne 9.999023 -Nl RTR -Nw --- -Ma 0 -Md 1f000000 -Ms ffff0008 -Mt 0 -Is 31.0 -Id -1.0 -It tcp -Il 1 -If 0 -Ii 0 -Iv 32 -Pn tcp -Ps 0 -Pa 0 -Pf 1 -Po 0 
r -t 0.137483592 -Hs 4 -Hd -2 -Ni 4 -Nx 34.59 -Ny 17.35 -Nz 0.00 -Ne 9.999023 -Nl AGT -Nw --- -Ma 0 -Md 1f000000 -Ms ffff0008 -Mt 0 -Is 31.0 -Id -1.0 -It tcp -Il 1 -If 0 -Ii 0 -Iv 32 -Pn tcp -Ps 0 -Pa 0 -Pf 1 -Po 0 
r -t 0.137483594 -Hs 24 -Hd -2 -Ni 24 -Nx 16.23 -Ny 42.47 -Nz 0.00 -Ne 9.999023 -Nl RTR -Nw --- -Ma 0 -Md 1f000000 -Ms ffff0008 -Mt 0 -Is 31.0 -Id -1.0 -It tcp -Il 1 -If 0 -Ii 0 -Iv 32 -Pn tcp -Ps 0 -Pa 0 -Pf 1 -Po 0 
r -t 0.137483594 -Hs 24 -Hd -2 -Ni 24 -Nx 16.23 -Ny 42.47 -Nz 0.00 -Ne 9.999023 -Nl AGT -Nw --- -Ma 0 -Md 1f000000 -Ms ffff0008 -Mt 0 -Is 31.0 -Id -1.0 -It tcp -Il 1 -If 0 -Ii 0 -Iv 32 -Pn tcp -Ps 0 -Pa 0 -Pf 1 -Po 0 
r -t 0.137483600 -Hs 22 -Hd -2 -Ni 22 -Nx 72.02 -Ny 90.02 -Nz 0.00 -Ne 9.999023 -Nl RTR -Nw --- -Ma 0 -Md 1f000000 -Ms ffff0008 -Mt 0 -Is 31.0 -Id -1.0 -It tcp -Il 1 -If 0 -Ii 0 -Iv 32 -Pn tcp -Ps 0 -Pa 0 -Pf 1 -Po 0 
r -t 0.137483600 -Hs 22 -Hd -2 -Ni 22 -Nx 72.02 -Ny 90.02 -Nz 0.00 -Ne 9.999023 -Nl AGT -Nw --- -Ma 0 -Md 1f000000 -Ms ffff0008 -Mt 0 -Is 31.0 -Id -1.0 -It tcp -Il 1 -If 0 -Ii 0 -Iv 32 -Pn tcp -Ps 0 -Pa 0 -Pf 1 -Po 0 
r -t 0.137483603 -Hs 27 -Hd -2 -Ni 27 -Nx 13.32 -Ny 58.31 -Nz 0.00 -Ne 9.999023 -Nl RTR -Nw --- -Ma 0 -Md 1f000000 -Ms ffff0008 -Mt 0 -Is 31.0 -Id -1.0 -It tcp -Il 1 -If 0 -Ii 0 -Iv 32 -Pn tcp -Ps 0 -Pa 0 -Pf 1 -Po 0 
r -t 0.137483603 -Hs 27 -Hd -2 -Ni 27 -Nx 13.32 -Ny 58.31 -Nz 0.00 -Ne 9.999023 -Nl AGT -Nw --- -Ma 0 -Md 1f000000 -Ms ffff0008 -Mt 0 -Is 31.0 -Id -1.0 -It tcp -Il 1 -If 0 -Ii 0 -Iv 32 -Pn tcp -Ps 0 -Pa 0 -Pf 1 -Po 0 
r -t 0.137483607 -Hs 11 -Hd -2 -Ni 11 -Nx 11.73 -Ny 56.15 -Nz 0.00 -Ne 9.999023 -Nl RTR -Nw --- -Ma 0 -Md 1f000000 -Ms ffff0008 -Mt 0 -Is 31.0 -Id -1.0 -It tcp -Il 1 -If 0 -Ii 0 -Iv 32 -Pn tcp -Ps 0 -Pa 0 -Pf 1 -Po 0 
r -t 0.137483607 -Hs 11 -Hd -2 -Ni 11 -Nx 11.73 -Ny 56.15 -Nz 0.00 -Ne 9.999023 -Nl AGT -Nw --- -Ma 0 -Md 1f000000 -Ms ffff0008 -Mt 0 -Is 31.0 -Id -1.0 -It tcp -Il 1 -If 0 -Ii 0 -Iv 32 -Pn tcp -Ps 0 -Pa 0 -Pf 1 -Po 0 
r -t 0.137483611 -Hs 16 -Hd -2 -Ni 16 -Nx 79.52 -Ny 12.39 -Nz 0.00 -Ne 9.999023 -Nl RTR -Nw --- -Ma 0 -Md 1f000000 -Ms ffff0008 -Mt 0 -Is 31.0 -Id -1.0 -It tcp -Il 1 -If 0 -Ii 0 -Iv 32 -Pn tcp -Ps 0 -Pa 0 -Pf 1 -Po 0 
r -t 0.137483611 -Hs 16 -Hd -2 -Ni 16 -Nx 79.52 -Ny 12.39 -Nz 0.00 -Ne 9.999023 -Nl AGT -Nw --- -Ma 0 -Md 1f000000 -Ms ffff0008 -Mt 0 -Is 31.0 -Id -1.0 -It tcp -Il 1 -If 0 -Ii 0 -Iv 32 -Pn tcp -Ps 0 -Pa 0 -Pf 1 -Po 0 
r -t 0.137483615 -Hs 36 -Hd -2 -Ni 36 -Nx 42.82 -Ny 95.95 -Nz 0.00 -Ne 9.999023 -Nl RTR -Nw --- -Ma 0 -Md 1f000000 -Ms ffff0008 -Mt 0 -Is 31.0 -Id -1.0 -It tcp -Il 1 -If 0 -Ii 0 -Iv 32 -Pn tcp -Ps 0 -Pa 0 -Pf 1 -Po 0 
r -t 0.137483615 -Hs 36 -Hd -2 -Ni 36 -Nx 42.82 -Ny 95.95 -Nz 0.00 -Ne 9.999023 -Nl AGT -Nw --- -Ma 0 -Md 1f000000 -Ms ffff0008 -Mt 0 -Is 31.0 -Id -1.0 -It tcp -Il 1 -If 0 -Ii 0 -Iv 32 -Pn tcp -Ps 0 -Pa 0 -Pf 1 -Po 0 
r -t 0.137483615 -Hs 6 -Hd -2 -Ni 6 -Nx 87.85 -Ny 84.86 -Nz 0.00 -Ne 9.999023 -Nl RTR -Nw --- -Ma 0 -Md 1f000000 -Ms ffff0008 -Mt 0 -Is 31.0 -Id -1.0 -It tcp -Il 1 -If 0 -Ii 0 -Iv 32 -Pn tcp -Ps 0 -Pa 0 -Pf 1 -Po 0 
r -t 0.137483615 -Hs 6 -Hd -2 -Ni 6 -Nx 87.85 -Ny 84.86 -Nz 0.00 -Ne 9.999023 -Nl AGT -Nw --- -Ma 0 -Md 1f000000 -Ms ffff0008 -Mt 0 -Is 31.0 -Id -1.0 -It tcp -Il 1 -If 0 -Ii 0 -Iv 32 -Pn tcp -Ps 0 -Pa 0 -Pf 1 -Po 0 
r -t 0.137483617 -Hs 23 -Hd -2 -Ni 23 -Nx 74.18 -Ny 7.54 -Nz 0.00 -Ne 9.999023 -Nl RTR -Nw --- -Ma 0 -Md 1f000000 -Ms ffff0008 -Mt 0 -Is 31.0 -Id -1.0 -It tcp -Il 1 -If 0 -Ii 0 -Iv 32 -Pn tcp -Ps 0 -Pa 0 -Pf 1 -Po 0 
r -t 0.137483617 -Hs 23 -Hd -2 -Ni 23 -Nx 74.18 -Ny 7.54 -Nz 0.00 -Ne 9.999023 -Nl AGT -Nw --- -Ma 0 -Md 1f000000 -Ms ffff0008 -Mt 0 -Is 31.0 -Id -1.0 -It tcp -Il 1 -If 0 -Ii 0 -Iv 32 -Pn tcp -Ps 0 -Pa 0 -Pf 1 -Po 0 
r -t 0.137483621 -Hs 21 -Hd -2 -Ni 21 -Nx 32.87 -Ny 94.01 -Nz 0.00 -Ne 9.999023 -Nl RTR -Nw --- -Ma 0 -Md 1f000000 -Ms ffff0008 -Mt 0 -Is 31.0 -Id -1.0 -It tcp -Il 1 -If 0 -Ii 0 -Iv 32 -Pn tcp -Ps 0 -Pa 0 -Pf 1 -Po 0 
r -t 0.137483621 -Hs 21 -Hd -2 -Ni 21 -Nx 32.87 -Ny 94.01 -Nz 0.00 -Ne 9.999023 -Nl AGT -Nw --- -Ma 0 -Md 1f000000 -Ms ffff0008 -Mt 0 -Is 31.0 -Id -1.0 -It tcp -Il 1 -If 0 -Ii 0 -Iv 32 -Pn tcp -Ps 0 -Pa 0 -Pf 1 -Po 0 
r -t 0.137483632 -Hs 32 -Hd -2 -Ni 32 -Nx 35.16 -Ny 3.49 -Nz 0.00 -Ne 9.999023 -Nl RTR -Nw --- -Ma 0 -Md 1f000000 -Ms ffff0008 -Mt 0 -Is 31.0 -Id -1.0 -It tcp -Il 1 -If 0 -Ii 0 -Iv 32 -Pn tcp -Ps 0 -Pa 0 -Pf 1 -Po 0 
r -t 0.137483632 -Hs 32 -Hd -2 -Ni 32 -Nx 35.16 -Ny 3.49 -Nz 0.00 -Ne 9.999023 -Nl AGT -Nw --- -Ma 0 -Md 1f000000 -Ms ffff0008 -Mt 0 -Is 31.0 -Id -1.0 -It tcp -Il 1 -If 0 -Ii 0 -Iv 32 -Pn tcp -Ps 0 -Pa 0 -Pf 1 -Po 0 
r -t 0.137483633 -Hs 5 -Hd -2 -Ni 5 -Nx 20.99 -Ny 12.10 -Nz 0.00 -Ne 9.999023 -Nl RTR -Nw --- -Ma 0 -Md 1f000000 -Ms ffff0008 -Mt 0 -Is 31.0 -Id -1.0 -It tcp -Il 1 -If 0 -Ii 0 -Iv 32 -Pn tcp -Ps 0 -Pa 0 -Pf 1 -Po 0 
r -t 0.137483633 -Hs 5 -Hd -2 -Ni 5 -Nx 20.99 -Ny 12.10 -Nz 0.00 -Ne 9.999023 -Nl AGT -Nw --- -Ma 0 -Md 1f000000 -Ms ffff0008 -Mt 0 -Is 31.0 -Id -1.0 -It tcp -Il 1 -If 0 -Ii 0 -Iv 32 -Pn tcp -Ps 0 -Pa 0 -Pf 1 -Po 0 
r -t 0.137483639 -Hs 37 -Hd -2 -Ni 37 -Nx 2.26 -Ny 43.57 -Nz 0.00 -Ne 9.999023 -Nl RTR -Nw --- -Ma 0 -Md 1f000000 -Ms ffff0008 -Mt 0 -Is 31.0 -Id -1.0 -It tcp -Il 1 -If 0 -Ii 0 -Iv 32 -Pn tcp -Ps 0 -Pa 0 -Pf 1 -Po 0 
r -t 0.137483639 -Hs 37 -Hd -2 -Ni 37 -Nx 2.26 -Ny 43.57 -Nz 0.00 -Ne 9.999023 -Nl AGT -Nw --- -Ma 0 -Md 1f000000 -Ms ffff0008 -Mt 0 -Is 31.0 -Id -1.0 -It tcp -Il 1 -If 0 -Ii 0 -Iv 32 -Pn tcp -Ps 0 -Pa 0 -Pf 1 -Po 0 
r -t 0.137483641 -Hs 9 -Hd -2 -Ni 9 -Nx 1.25 -Ny 52.63 -Nz 0.00 -Ne 9.999023 -Nl RTR -Nw --- -Ma 0 -Md 1f000000 -Ms ffff0008 -Mt 0 -Is 31.0 -Id -1.0 -It tcp -Il 1 -If 0 -Ii 0 -Iv 32 -Pn tcp -Ps 0 -Pa 0 -Pf 1 -Po 0 
r -t 0.137483641 -Hs 9 -Hd -2 -Ni 9 -Nx 1.25 -Ny 52.63 -Nz 0.00 -Ne 9.999023 -Nl AGT -Nw --- -Ma 0 -Md 1f000000 -Ms ffff0008 -Mt 0 -Is 31.0 -Id -1.0 -It tcp -Il 1 -If 0 -Ii 0 -Iv 32 -Pn tcp -Ps 0 -Pa 0 -Pf 1 -Po 0 
r -t 0.137483642 -Hs 26 -Hd -2 -Ni 26 -Nx 18.72 -Ny 91.56 -Nz 0.00 -Ne 9.999023 -Nl RTR -Nw --- -Ma 0 -Md 1f000000 -Ms ffff0008 -Mt 0 -Is 31.0 -Id -1.0 -It tcp -Il 1 -If 0 -Ii 0 -Iv 32 -Pn tcp -Ps 0 -Pa 0 -Pf 1 -Po 0 
r -t 0.137483642 -Hs 26 -Hd -2 -Ni 26 -Nx 18.72 -Ny 91.56 -Nz 0.00 -Ne 9.999023 -Nl AGT -Nw --- -Ma 0 -Md 1f000000 -Ms ffff0008 -Mt 0 -Is 31.0 -Id -1.0 -It tcp -Il 1 -If 0 -Ii 0 -Iv 32 -Pn tcp -Ps 0 -Pa 0 -Pf 1 -Po 0 
r -t 0.137483651 -Hs 1 -Hd -2 -Ni 1 -Nx 0.40 -Ny 67.11 -Nz 0.00 -Ne 9.999023 -Nl RTR -Nw --- -Ma 0 -Md 1f000000 -Ms ffff0008 -Mt 0 -Is 31.0 -Id -1.0 -It tcp -Il 1 -If 0 -Ii 0 -Iv 32 -Pn tcp -Ps 0 -Pa 0 -Pf 1 -Po 0 
r -t 0.137483651 -Hs 1 -Hd -2 -Ni 1 -Nx 0.40 -Ny 67.11 -Nz 0.00 -Ne 9.999023 -Nl AGT -Nw --- -Ma 0 -Md 1f000000 -Ms ffff0008 -Mt 0 -Is 31.0 -Id -1.0 -It tcp -Il 1 -If 0 -Ii 0 -Iv 32 -Pn tcp -Ps 0 -Pa 0 -Pf 1 -Po 0 
r -t 0.137483652 -Hs 40 -Hd -2 -Ni 40 -Nx 25.48 -Ny 1.89 -Nz 0.00 -Ne 9.999023 -Nl RTR -Nw --- -Ma 0 -Md 1f000000 -Ms ffff0008 -Mt 0 -Is 31.0 -Id -1.0 -It tcp -Il 1 -If 0 -Ii 0 -Iv 32 -Pn tcp -Ps 0 -Pa 0 -Pf 1 -Po 0 