<<<<<<< HEAD
s -t 0.130612715 -Hs 7 -Hd -2 -Ni 7 -Nx 8.98 -Ny 71.08 -Nz 0.00 -Ne 10.000000 -Nl AGT -Nw --- -Ma 0 -Md 7000000 -Ms 0 -Mt 0 -Is 7.0 -Id -1.0 -It tcp -Il 1 -If 0 -Ii 0 -Iv 32 -Pn tcp -Ps 0 -Pa 0 -Pf 0 -Po 0 
r -t 0.130612715 -Hs 7 -Hd -2 -Ni 7 -Nx 8.98 -Ny 71.08 -Nz 0.00 -Ne 10.000000 -Nl RTR -Nw --- -Ma 0 -Md 7000000 -Ms 0 -Mt 0 -Is 7.0 -Id -1.0 -It tcp -Il 1 -If 0 -Ii 0 -Iv 32 -Pn tcp -Ps 0 -Pa 0 -Pf 0 -Po 0 
s -t 0.130612715 -Hs 7 -Hd -2 -Ni 7 -Nx 8.98 -Ny 71.08 -Nz 0.00 -Ne 10.000000 -Nl RTR -Nw --- -Ma 0 -Md 7000000 -Ms 0 -Mt 0 -Is 7.0 -Id -1.0 -It tcp -Il 1 -If 0 -Ii 0 -Iv 32 -Pn tcp -Ps 0 -Pa 0 -Pf 0 -Po 0 
s -t 0.130637715 -Hs 7 -Hd -2 -Ni 7 -Nx 8.98 -Ny 71.08 -Nz 0.00 -Ne 10.000000 -Nl MAC -Nw --- -Ma 0 -Md 7000000 -Ms ffff0008 -Mt 0 -Is 7.0 -Id -1.0 -It tcp -Il 21 -If 0 -Ii 0 -Iv 32 -Pn tcp -Ps 0 -Pa 0 -Pf 0 -Po 0 
N -t 0.130638 -n 5 -e 9.999998
N -t 0.130638 -n 1 -e 9.999998
N -t 0.130638 -n 0 -e 99.999958
N -t 0.130638 -n 6 -e 9.999998
N -t 0.130638 -n 3 -e 9.999998
N -t 0.130638 -n 4 -e 9.999998
N -t 0.130638 -n 2 -e 9.999998
r -t 0.130721786 -Hs 5 -Hd -2 -Ni 5 -Nx 8.79 -Ny 49.73 -Nz 0.00 -Ne 9.999998 -Nl MAC -Nw --- -Ma 0 -Md 7000000 -Ms ffff0008 -Mt 0 -Is 7.0 -Id -1.0 -It tcp -Il 1 -If 0 -Ii 0 -Iv 32 -Pn tcp -Ps 0 -Pa 0 -Pf 1 -Po 0 
r -t 0.130721837 -Hs 1 -Hd -2 -Ni 1 -Nx 9.50 -Ny 34.31 -Nz 0.00 -Ne 9.999998 -Nl MAC -Nw --- -Ma 0 -Md 7000000 -Ms ffff0008 -Mt 0 -Is 7.0 -Id -1.0 -It tcp -Il 1 -If 0 -Ii 0 -Iv 32 -Pn tcp -Ps 0 -Pa 0 -Pf 1 -Po 0 
r -t 0.130721869 -Hs 0 -Hd -2 -Ni 0 -Nx 50.00 -Ny 50.00 -Nz 0.00 -Ne 99.999958 -Nl MAC -Nw --- -Ma 0 -Md 7000000 -Ms ffff0008 -Mt 0 -Is 7.0 -Id -1.0 -It tcp -Il 1 -If 0 -Ii 0 -Iv 32 -Pn tcp -Ps 0 -Pa 0 -Pf 1 -Po 0 
r -t 0.130721875 -Hs 6 -Hd -2 -Ni 6 -Nx 56.14 -Ny 80.65 -Nz 0.00 -Ne 9.999998 -Nl MAC -Nw --- -Ma 0 -Md 7000000 -Ms ffff0008 -Mt 0 -Is 7.0 -Id -1.0 -It tcp -Il 1 -If 0 -Ii 0 -Iv 32 -Pn tcp -Ps 0 -Pa 0 -Pf 1 -Po 0 
r -t 0.130721930 -Hs 3 -Hd -2 -Ni 3 -Nx 54.30 -Ny 25.31 -Nz 0.00 -Ne 9.999998 -Nl MAC -Nw --- -Ma 0 -Md 7000000 -Ms ffff0008 -Mt 0 -Is 7.0 -Id -1.0 -It tcp -Il 1 -If 0 -Ii 0 -Iv 32 -Pn tcp -Ps 0 -Pa 0 -Pf 1 -Po 0 
r -t 0.130721991 -Hs 4 -Hd -2 -Ni 4 -Nx 90.27 -Ny 54.59 -Nz 0.00 -Ne 9.999998 -Nl MAC -Nw --- -Ma 0 -Md 7000000 -Ms ffff0008 -Mt 0 -Is 7.0 -Id -1.0 -It tcp -Il 1 -If 0 -Ii 0 -Iv 32 -Pn tcp -Ps 0 -Pa 0 -Pf 1 -Po 0 
r -t 0.130722003 -Hs 2 -Hd -2 -Ni 2 -Nx 86.53 -Ny 32.80 -Nz 0.00 -Ne 9.999998 -Nl MAC -Nw --- -Ma 0 -Md 7000000 -Ms ffff0008 -Mt 0 -Is 7.0 -Id -1.0 -It tcp -Il 1 -If 0 -Ii 0 -Iv 32 -Pn tcp -Ps 0 -Pa 0 -Pf 1 -Po 0 
r -t 0.130746786 -Hs 5 -Hd -2 -Ni 5 -Nx 8.79 -Ny 49.73 -Nz 0.00 -Ne 9.999998 -Nl RTR -Nw --- -Ma 0 -Md 7000000 -Ms ffff0008 -Mt 0 -Is 7.0 -Id -1.0 -It tcp -Il 1 -If 0 -Ii 0 -Iv 32 -Pn tcp -Ps 0 -Pa 0 -Pf 1 -Po 0 
r -t 0.130746786 -Hs 5 -Hd -2 -Ni 5 -Nx 8.79 -Ny 49.73 -Nz 0.00 -Ne 9.999998 -Nl AGT -Nw --- -Ma 0 -Md 7000000 -Ms ffff0008 -Mt 0 -Is 7.0 -Id -1.0 -It tcp -Il 1 -If 0 -Ii 0 -Iv 32 -Pn tcp -Ps 0 -Pa 0 -Pf 1 -Po 0 
r -t 0.130746837 -Hs 1 -Hd -2 -Ni 1 -Nx 9.50 -Ny 34.31 -Nz 0.00 -Ne 9.999998 -Nl RTR -Nw --- -Ma 0 -Md 7000000 -Ms ffff0008 -Mt 0 -Is 7.0 -Id -1.0 -It tcp -Il 1 -If 0 -Ii 0 -Iv 32 -Pn tcp -Ps 0 -Pa 0 -Pf 1 -Po 0 
r -t 0.130746837 -Hs 1 -Hd -2 -Ni 1 -Nx 9.50 -Ny 34.31 -Nz 0.00 -Ne 9.999998 -Nl AGT -Nw --- -Ma 0 -Md 7000000 -Ms ffff0008 -Mt 0 -Is 7.0 -Id -1.0 -It tcp -Il 1 -If 0 -Ii 0 -Iv 32 -Pn tcp -Ps 0 -Pa 0 -Pf 1 -Po 0 
r -t 0.130746869 -Hs 0 -Hd -2 -Ni 0 -Nx 50.00 -Ny 50.00 -Nz 0.00 -Ne 99.999958 -Nl RTR -Nw --- -Ma 0 -Md 7000000 -Ms ffff0008 -Mt 0 -Is 7.0 -Id -1.0 -It tcp -Il 1 -If 0 -Ii 0 -Iv 32 -Pn tcp -Ps 0 -Pa 0 -Pf 1 -Po 0 
r -t 0.130746869 -Hs 0 -Hd -2 -Ni 0 -Nx 50.00 -Ny 50.00 -Nz 0.00 -Ne 99.999958 -Nl AGT -Nw --- -Ma 0 -Md 7000000 -Ms ffff0008 -Mt 0 -Is 7.0 -Id -1.0 -It tcp -Il 1 -If 0 -Ii 0 -Iv 32 -Pn tcp -Ps 0 -Pa 0 -Pf 1 -Po 0 
r -t 0.130746875 -Hs 6 -Hd -2 -Ni 6 -Nx 56.14 -Ny 80.65 -Nz 0.00 -Ne 9.999998 -Nl RTR -Nw --- -Ma 0 -Md 7000000 -Ms ffff0008 -Mt 0 -Is 7.0 -Id -1.0 -It tcp -Il 1 -If 0 -Ii 0 -Iv 32 -Pn tcp -Ps 0 -Pa 0 -Pf 1 -Po 0 
r -t 0.130746875 -Hs 6 -Hd -2 -Ni 6 -Nx 56.14 -Ny 80.65 -Nz 0.00 -Ne 9.999998 -Nl AGT -Nw --- -Ma 0 -Md 7000000 -Ms ffff0008 -Mt 0 -Is 7.0 -Id -1.0 -It tcp -Il 1 -If 0 -Ii 0 -Iv 32 -Pn tcp -Ps 0 -Pa 0 -Pf 1 -Po 0 
r -t 0.130746930 -Hs 3 -Hd -2 -Ni 3 -Nx 54.30 -Ny 25.31 -Nz 0.00 -Ne 9.999998 -Nl RTR -Nw --- -Ma 0 -Md 7000000 -Ms ffff0008 -Mt 0 -Is 7.0 -Id -1.0 -It tcp -Il 1 -If 0 -Ii 0 -Iv 32 -Pn tcp -Ps 0 -Pa 0 -Pf 1 -Po 0 
r -t 0.130746930 -Hs 3 -Hd -2 -Ni 3 -Nx 54.30 -Ny 25.31 -Nz 0.00 -Ne 9.999998 -Nl AGT -Nw --- -Ma 0 -Md 7000000 -Ms ffff0008 -Mt 0 -Is 7.0 -Id -1.0 -It tcp -Il 1 -If 0 -Ii 0 -Iv 32 -Pn tcp -Ps 0 -Pa 0 -Pf 1 -Po 0 
r -t 0.130746991 -Hs 4 -Hd -2 -Ni 4 -Nx 90.27 -Ny 54.59 -Nz 0.00 -Ne 9.999998 -Nl RTR -Nw --- -Ma 0 -Md 7000000 -Ms ffff0008 -Mt 0 -Is 7.0 -Id -1.0 -It tcp -Il 1 -If 0 -Ii 0 -Iv 32 -Pn tcp -Ps 0 -Pa 0 -Pf 1 -Po 0 
r -t 0.130746991 -Hs 4 -Hd -2 -Ni 4 -Nx 90.27 -Ny 54.59 -Nz 0.00 -Ne 9.999998 -Nl AGT -Nw --- -Ma 0 -Md 7000000 -Ms ffff0008 -Mt 0 -Is 7.0 -Id -1.0 -It tcp -Il 1 -If 0 -Ii 0 -Iv 32 -Pn tcp -Ps 0 -Pa 0 -Pf 1 -Po 0 
r -t 0.130747003 -Hs 2 -Hd -2 -Ni 2 -Nx 86.53 -Ny 32.80 -Nz 0.00 -Ne 9.999998 -Nl RTR -Nw --- -Ma 0 -Md 7000000 -Ms ffff0008 -Mt 0 -Is 7.0 -Id -1.0 -It tcp -Il 1 -If 0 -Ii 0 -Iv 32 -Pn tcp -Ps 0 -Pa 0 -Pf 1 -Po 0 
r -t 0.130747003 -Hs 2 -Hd -2 -Ni 2 -Nx 86.53 -Ny 32.80 -Nz 0.00 -Ne 9.999998 -Nl AGT -Nw --- -Ma 0 -Md 7000000 -Ms ffff0008 -Mt 0 -Is 7.0 -Id -1.0 -It tcp -Il 1 -If 0 -Ii 0 -Iv 32 -Pn tcp -Ps 0 -Pa 0 -Pf 1 -Po 0 
s -t 0.348257591 -Hs 5 -Hd -2 -Ni 5 -Nx 8.79 -Ny 49.73 -Nz 0.00 -Ne 9.996585 -Nl AGT -Nw --- -Ma 0 -Md 5000000 -Ms 0 -Mt 0 -Is 5.0 -Id -1.0 -It tcp -Il 1 -If 0 -Ii 1 -Iv 32 -Pn tcp -Ps 0 -Pa 0 -Pf 0 -Po 0 
r -t 0.348257591 -Hs 5 -Hd -2 -Ni 5 -Nx 8.79 -Ny 49.73 -Nz 0.00 -Ne 9.996585 -Nl RTR -Nw --- -Ma 0 -Md 5000000 -Ms 0 -Mt 0 -Is 5.0 -Id -1.0 -It tcp -Il 1 -If 0 -Ii 1 -Iv 32 -Pn tcp -Ps 0 -Pa 0 -Pf 0 -Po 0 
s -t 0.348257591 -Hs 5 -Hd -2 -Ni 5 -Nx 8.79 -Ny 49.73 -Nz 0.00 -Ne 9.996585 -Nl RTR -Nw --- -Ma 0 -Md 5000000 -Ms 0 -Mt 0 -Is 5.0 -Id -1.0 -It tcp -Il 1 -If 0 -Ii 1 -Iv 32 -Pn tcp -Ps 0 -Pa 0 -Pf 0 -Po 0 
s -t 0.348282591 -Hs 5 -Hd -2 -Ni 5 -Nx 8.79 -Ny 49.73 -Nz 0.00 -Ne 9.996585 -Nl MAC -Nw --- -Ma 0 -Md 5000000 -Ms ffff0008 -Mt 0 -Is 5.0 -Id -1.0 -It tcp -Il 21 -If 0 -Ii 1 -Iv 32 -Pn tcp -Ps 0 -Pa 0 -Pf 0 -Po 0 
N -t 0.348283 -n 1 -e 9.996583
N -t 0.348283 -n 7 -e 9.996585
N -t 0.348283 -n 0 -e 99.999916
N -t 0.348283 -n 3 -e 9.996583
N -t 0.348283 -n 6 -e 9.996583
N -t 0.348283 -n 2 -e 9.996583
N -t 0.348283 -n 4 -e 9.996583
r -t 0.348366642 -Hs 1 -Hd -2 -Ni 1 -Nx 9.50 -Ny 34.31 -Nz 0.00 -Ne 9.996583 -Nl MAC -Nw --- -Ma 0 -Md 5000000 -Ms ffff0008 -Mt 0 -Is 5.0 -Id -1.0 -It tcp -Il 1 -If 0 -Ii 1 -Iv 32 -Pn tcp -Ps 0 -Pa 0 -Pf 1 -Po 0 
r -t 0.348366728 -Hs 0 -Hd -2 -Ni 0 -Nx 50.00 -Ny 50.00 -Nz 0.00 -Ne 99.999916 -Nl MAC -Nw --- -Ma 0 -Md 5000000 -Ms ffff0008 -Mt 0 -Is 5.0 -Id -1.0 -It tcp -Il 1 -If 0 -Ii 1 -Iv 32 -Pn tcp -Ps 0 -Pa 0 -Pf 1 -Po 0 
r -t 0.348366763 -Hs 3 -Hd -2 -Ni 3 -Nx 54.30 -Ny 25.31 -Nz 0.00 -Ne 9.996583 -Nl MAC -Nw --- -Ma 0 -Md 5000000 -Ms ffff0008 -Mt 0 -Is 5.0 -Id -1.0 -It tcp -Il 1 -If 0 -Ii 1 -Iv 32 -Pn tcp -Ps 0 -Pa 0 -Pf 1 -Po 0 
r -t 0.348366779 -Hs 6 -Hd -2 -Ni 6 -Nx 56.14 -Ny 80.65 -Nz 0.00 -Ne 9.996583 -Nl MAC -Nw --- -Ma 0 -Md 5000000 -Ms ffff0008 -Mt 0 -Is 5.0 -Id -1.0 -It tcp -Il 1 -If 0 -Ii 1 -Iv 32 -Pn tcp -Ps 0 -Pa 0 -Pf 1 -Po 0 
r -t 0.348366856 -Hs 2 -Hd -2 -Ni 2 -Nx 86.53 -Ny 32.80 -Nz 0.00 -Ne 9.996583 -Nl MAC -Nw --- -Ma 0 -Md 5000000 -Ms ffff0008 -Mt 0 -Is 5.0 -Id -1.0 -It tcp -Il 1 -If 0 -Ii 1 -Iv 32 -Pn tcp -Ps 0 -Pa 0 -Pf 1 -Po 0 
r -t 0.348366863 -Hs 4 -Hd -2 -Ni 4 -Nx 90.27 -Ny 54.59 -Nz 0.00 -Ne 9.996583 -Nl MAC -Nw --- -Ma 0 -Md 5000000 -Ms ffff0008 -Mt 0 -Is 5.0 -Id -1.0 -It tcp -Il 1 -If 0 -Ii 1 -Iv 32 -Pn tcp -Ps 0 -Pa 0 -Pf 1 -Po 0 
r -t 0.348391642 -Hs 1 -Hd -2 -Ni 1 -Nx 9.50 -Ny 34.31 -Nz 0.00 -Ne 9.996583 -Nl RTR -Nw --- -Ma 0 -Md 5000000 -Ms ffff0008 -Mt 0 -Is 5.0 -Id -1.0 -It tcp -Il 1 -If 0 -Ii 1 -Iv 32 -Pn tcp -Ps 0 -Pa 0 -Pf 1 -Po 0 
r -t 0.348391642 -Hs 1 -Hd -2 -Ni 1 -Nx 9.50 -Ny 34.31 -Nz 0.00 -Ne 9.996583 -Nl AGT -Nw --- -Ma 0 -Md 5000000 -Ms ffff0008 -Mt 0 -Is 5.0 -Id -1.0 -It tcp -Il 1 -If 0 -Ii 1 -Iv 32 -Pn tcp -Ps 0 -Pa 0 -Pf 1 -Po 0 
r -t 0.348391728 -Hs 0 -Hd -2 -Ni 0 -Nx 50.00 -Ny 50.00 -Nz 0.00 -Ne 99.999916 -Nl RTR -Nw --- -Ma 0 -Md 5000000 -Ms ffff0008 -Mt 0 -Is 5.0 -Id -1.0 -It tcp -Il 1 -If 0 -Ii 1 -Iv 32 -Pn tcp -Ps 0 -Pa 0 -Pf 1 -Po 0 
r -t 0.348391728 -Hs 0 -Hd -2 -Ni 0 -Nx 50.00 -Ny 50.00 -Nz 0.00 -Ne 99.999916 -Nl AGT -Nw --- -Ma 0 -Md 5000000 -Ms ffff0008 -Mt 0 -Is 5.0 -Id -1.0 -It tcp -Il 1 -If 0 -Ii 1 -Iv 32 -Pn tcp -Ps 0 -Pa 0 -Pf 1 -Po 0 
r -t 0.348391763 -Hs 3 -Hd -2 -Ni 3 -Nx 54.30 -Ny 25.31 -Nz 0.00 -Ne 9.996583 -Nl RTR -Nw --- -Ma 0 -Md 5000000 -Ms ffff0008 -Mt 0 -Is 5.0 -Id -1.0 -It tcp -Il 1 -If 0 -Ii 1 -Iv 32 -Pn tcp -Ps 0 -Pa 0 -Pf 1 -Po 0 
r -t 0.348391763 -Hs 3 -Hd -2 -Ni 3 -Nx 54.30 -Ny 25.31 -Nz 0.00 -Ne 9.996583 -Nl AGT -Nw --- -Ma 0 -Md 5000000 -Ms ffff0008 -Mt 0 -Is 5.0 -Id -1.0 -It tcp -Il 1 -If 0 -Ii 1 -Iv 32 -Pn tcp -Ps 0 -Pa 0 -Pf 1 -Po 0 
r -t 0.348391779 -Hs 6 -Hd -2 -Ni 6 -Nx 56.14 -Ny 80.65 -Nz 0.00 -Ne 9.996583 -Nl RTR -Nw --- -Ma 0 -Md 5000000 -Ms ffff0008 -Mt 0 -Is 5.0 -Id -1.0 -It tcp -Il 1 -If 0 -Ii 1 -Iv 32 -Pn tcp -Ps 0 -Pa 0 -Pf 1 -Po 0 
r -t 0.348391779 -Hs 6 -Hd -2 -Ni 6 -Nx 56.14 -Ny 80.65 -Nz 0.00 -Ne 9.996583 -Nl AGT -Nw --- -Ma 0 -Md 5000000 -Ms ffff0008 -Mt 0 -Is 5.0 -Id -1.0 -It tcp -Il 1 -If 0 -Ii 1 -Iv 32 -Pn tcp -Ps 0 -Pa 0 -Pf 1 -Po 0 
r -t 0.348391856 -Hs 2 -Hd -2 -Ni 2 -Nx 86.53 -Ny 32.80 -Nz 0.00 -Ne 9.996583 -Nl RTR -Nw --- -Ma 0 -Md 5000000 -Ms ffff0008 -Mt 0 -Is 5.0 -Id -1.0 -It tcp -Il 1 -If 0 -Ii 1 -Iv 32 -Pn tcp -Ps 0 -Pa 0 -Pf 1 -Po 0 
r -t 0.348391856 -Hs 2 -Hd -2 -Ni 2 -Nx 86.53 -Ny 32.80 -Nz 0.00 -Ne 9.996583 -Nl AGT -Nw --- -Ma 0 -Md 5000000 -Ms ffff0008 -Mt 0 -Is 5.0 -Id -1.0 -It tcp -Il 1 -If 0 -Ii 1 -Iv 32 -Pn tcp -Ps 0 -Pa 0 -Pf 1 -Po 0 
r -t 0.348391863 -Hs 4 -Hd -2 -Ni 4 -Nx 90.27 -Ny 54.59 -Nz 0.00 -Ne 9.996583 -Nl RTR -Nw --- -Ma 0 -Md 5000000 -Ms ffff0008 -Mt 0 -Is 5.0 -Id -1.0 -It tcp -Il 1 -If 0 -Ii 1 -Iv 32 -Pn tcp -Ps 0 -Pa 0 -Pf 1 -Po 0 
r -t 0.348391863 -Hs 4 -Hd -2 -Ni 4 -Nx 90.27 -Ny 54.59 -Nz 0.00 -Ne 9.996583 -Nl AGT -Nw --- -Ma 0 -Md 5000000 -Ms ffff0008 -Mt 0 -Is 5.0 -Id -1.0 -It tcp -Il 1 -If 0 -Ii 1 -Iv 32 -Pn tcp -Ps 0 -Pa 0 -Pf 1 -Po 0 
s -t 0.410741853 -Hs 2 -Hd -2 -Ni 2 -Nx 86.53 -Ny 32.80 -Nz 0.00 -Ne 9.995608 -Nl AGT -Nw --- -Ma 0 -Md 2000000 -Ms 0 -Mt 0 -Is 2.0 -Id -1.0 -It tcp -Il 1 -If 0 -Ii 2 -Iv 32 -Pn tcp -Ps 0 -Pa 0 -Pf 0 -Po 0 
r -t 0.410741853 -Hs 2 -Hd -2 -Ni 2 -Nx 86.53 -Ny 32.80 -Nz 0.00 -Ne 9.995608 -Nl RTR -Nw --- -Ma 0 -Md 2000000 -Ms 0 -Mt 0 -Is 2.0 -Id -1.0 -It tcp -Il 1 -If 0 -Ii 2 -Iv 32 -Pn tcp -Ps 0 -Pa 0 -Pf 0 -Po 0 
s -t 0.410741853 -Hs 2 -Hd -2 -Ni 2 -Nx 86.53 -Ny 32.80 -Nz 0.00 -Ne 9.995608 -Nl RTR -Nw --- -Ma 0 -Md 2000000 -Ms 0 -Mt 0 -Is 2.0 -Id -1.0 -It tcp -Il 1 -If 0 -Ii 2 -Iv 32 -Pn tcp -Ps 0 -Pa 0 -Pf 0 -Po 0 
s -t 0.410766853 -Hs 2 -Hd -2 -Ni 2 -Nx 86.53 -Ny 32.80 -Nz 0.00 -Ne 9.995608 -Nl MAC -Nw --- -Ma 0 -Md 2000000 -Ms ffff0008 -Mt 0 -Is 2.0 -Id -1.0 -It tcp -Il 21 -If 0 -Ii 2 -Iv 32 -Pn tcp -Ps 0 -Pa 0 -Pf 0 -Po 0 
N -t 0.410767 -n 4 -e 9.995606
N -t 0.410767 -n 3 -e 9.995606
N -t 0.410767 -n 0 -e 99.999874
N -t 0.410767 -n 6 -e 9.995606
N -t 0.410767 -n 1 -e 9.995606
N -t 0.410767 -n 5 -e 9.995608
N -t 0.410767 -n 7 -e 9.995608
r -t 0.410850927 -Hs 4 -Hd -2 -Ni 4 -Nx 90.27 -Ny 54.59 -Nz 0.00 -Ne 9.995606 -Nl MAC -Nw --- -Ma 0 -Md 2000000 -Ms ffff0008 -Mt 0 -Is 2.0 -Id -1.0 -It tcp -Il 1 -If 0 -Ii 2 -Iv 32 -Pn tcp -Ps 0 -Pa 0 -Pf 1 -Po 0 
r -t 0.410850963 -Hs 3 -Hd -2 -Ni 3 -Nx 54.30 -Ny 25.31 -Nz 0.00 -Ne 9.995606 -Nl MAC -Nw --- -Ma 0 -Md 2000000 -Ms ffff0008 -Mt 0 -Is 2.0 -Id -1.0 -It tcp -Il 1 -If 0 -Ii 2 -Iv 32 -Pn tcp -Ps 0 -Pa 0 -Pf 1 -Po 0 
r -t 0.410850987 -Hs 0 -Hd -2 -Ni 0 -Nx 50.00 -Ny 50.00 -Nz 0.00 -Ne 99.999874 -Nl MAC -Nw --- -Ma 0 -Md 2000000 -Ms ffff0008 -Mt 0 -Is 2.0 -Id -1.0 -It tcp -Il 1 -If 0 -Ii 2 -Iv 32 -Pn tcp -Ps 0 -Pa 0 -Pf 1 -Po 0 
r -t 0.410851042 -Hs 6 -Hd -2 -Ni 6 -Nx 56.14 -Ny 80.65 -Nz 0.00 -Ne 9.995606 -Nl MAC -Nw --- -Ma 0 -Md 2000000 -Ms ffff0008 -Mt 0 -Is 2.0 -Id -1.0 -It tcp -Il 1 -If 0 -Ii 2 -Iv 32 -Pn tcp -Ps 0 -Pa 0 -Pf 1 -Po 0 
r -t 0.410851110 -Hs 1 -Hd -2 -Ni 1 -Nx 9.50 -Ny 34.31 -Nz 0.00 -Ne 9.995606 -Nl MAC -Nw --- -Ma 0 -Md 2000000 -Ms ffff0008 -Mt 0 -Is 2.0 -Id -1.0 -It tcp -Il 1 -If 0 -Ii 2 -Iv 32 -Pn tcp -Ps 0 -Pa 0 -Pf 1 -Po 0 
r -t 0.410875927 -Hs 4 -Hd -2 -Ni 4 -Nx 90.27 -Ny 54.59 -Nz 0.00 -Ne 9.995606 -Nl RTR -Nw --- -Ma 0 -Md 2000000 -Ms ffff0008 -Mt 0 -Is 2.0 -Id -1.0 -It tcp -Il 1 -If 0 -Ii 2 -Iv 32 -Pn tcp -Ps 0 -Pa 0 -Pf 1 -Po 0 
r -t 0.410875927 -Hs 4 -Hd -2 -Ni 4 -Nx 90.27 -Ny 54.59 -Nz 0.00 -Ne 9.995606 -Nl AGT -Nw --- -Ma 0 -Md 2000000 -Ms ffff0008 -Mt 0 -Is 2.0 -Id -1.0 -It tcp -Il 1 -If 0 -Ii 2 -Iv 32 -Pn tcp -Ps 0 -Pa 0 -Pf 1 -Po 0 
r -t 0.410875963 -Hs 3 -Hd -2 -Ni 3 -Nx 54.30 -Ny 25.31 -Nz 0.00 -Ne 9.995606 -Nl RTR -Nw --- -Ma 0 -Md 2000000 -Ms ffff0008 -Mt 0 -Is 2.0 -Id -1.0 -It tcp -Il 1 -If 0 -Ii 2 -Iv 32 -Pn tcp -Ps 0 -Pa 0 -Pf 1 -Po 0 
r -t 0.410875963 -Hs 3 -Hd -2 -Ni 3 -Nx 54.30 -Ny 25.31 -Nz 0.00 -Ne 9.995606 -Nl AGT -Nw --- -Ma 0 -Md 2000000 -Ms ffff0008 -Mt 0 -Is 2.0 -Id -1.0 -It tcp -Il 1 -If 0 -Ii 2 -Iv 32 -Pn tcp -Ps 0 -Pa 0 -Pf 1 -Po 0 
r -t 0.410875987 -Hs 0 -Hd -2 -Ni 0 -Nx 50.00 -Ny 50.00 -Nz 0.00 -Ne 99.999874 -Nl RTR -Nw --- -Ma 0 -Md 2000000 -Ms ffff0008 -Mt 0 -Is 2.0 -Id -1.0 -It tcp -Il 1 -If 0 -Ii 2 -Iv 32 -Pn tcp -Ps 0 -Pa 0 -Pf 1 -Po 0 
r -t 0.410875987 -Hs 0 -Hd -2 -Ni 0 -Nx 50.00 -Ny 50.00 -Nz 0.00 -Ne 99.999874 -Nl AGT -Nw --- -Ma 0 -Md 2000000 -Ms ffff0008 -Mt 0 -Is 2.0 -Id -1.0 -It tcp -Il 1 -If 0 -Ii 2 -Iv 32 -Pn tcp -Ps 0 -Pa 0 -Pf 1 -Po 0 
r -t 0.410876042 -Hs 6 -Hd -2 -Ni 6 -Nx 56.14 -Ny 80.65 -Nz 0.00 -Ne 9.995606 -Nl RTR -Nw --- -Ma 0 -Md 2000000 -Ms ffff0008 -Mt 0 -Is 2.0 -Id -1.0 -It tcp -Il 1 -If 0 -Ii 2 -Iv 32 -Pn tcp -Ps 0 -Pa 0 -Pf 1 -Po 0 
r -t 0.410876042 -Hs 6 -Hd -2 -Ni 6 -Nx 56.14 -Ny 80.65 -Nz 0.00 -Ne 9.995606 -Nl AGT -Nw --- -Ma 0 -Md 2000000 -Ms ffff0008 -Mt 0 -Is 2.0 -Id -1.0 -It tcp -Il 1 -If 0 -Ii 2 -Iv 32 -Pn tcp -Ps 0 -Pa 0 -Pf 1 -Po 0 
r -t 0.410876110 -Hs 1 -Hd -2 -Ni 1 -Nx 9.50 -Ny 34.31 -Nz 0.00 -Ne 9.995606 -Nl RTR -Nw --- -Ma 0 -Md 2000000 -Ms ffff0008 -Mt 0 -Is 2.0 -Id -1.0 -It tcp -Il 1 -If 0 -Ii 2 -Iv 32 -Pn tcp -Ps 0 -Pa 0 -Pf 1 -Po 0 
r -t 0.410876110 -Hs 1 -Hd -2 -Ni 1 -Nx 9.50 -Ny 34.31 -Nz 0.00 -Ne 9.995606 -Nl AGT -Nw --- -Ma 0 -Md 2000000 -Ms ffff0008 -Mt 0 -Is 2.0 -Id -1.0 -It tcp -Il 1 -If 0 -Ii 2 -Iv 32 -Pn tcp -Ps 0 -Pa 0 -Pf 1 -Po 0 
s -t 2.272741577 -Hs 1 -Hd -2 -Ni 1 -Nx 9.50 -Ny 34.31 -Nz 0.00 -Ne 9.965544 -Nl AGT -Nw --- -Ma 0 -Md 1000000 -Ms 0 -Mt 0 -Is 1.0 -Id -1.0 -It udp -Il 1 -If 0 -Ii 3 -Iv 32 
r -t 2.272741577 -Hs 1 -Hd -2 -Ni 1 -Nx 9.50 -Ny 34.31 -Nz 0.00 -Ne 9.965544 -Nl RTR -Nw --- -Ma 0 -Md 1000000 -Ms 0 -Mt 0 -Is 1.0 -Id -1.0 -It udp -Il 1 -If 0 -Ii 3 -Iv 32 
s -t 2.272741577 -Hs 1 -Hd -2 -Ni 1 -Nx 9.50 -Ny 34.31 -Nz 0.00 -Ne 9.965544 -Nl RTR -Nw --- -Ma 0 -Md 1000000 -Ms 0 -Mt 0 -Is 1.0 -Id -1.0 -It udp -Il 1 -If 0 -Ii 3 -Iv 32 
s -t 2.272766577 -Hs 1 -Hd -2 -Ni 1 -Nx 9.50 -Ny 34.31 -Nz 0.00 -Ne 9.965544 -Nl MAC -Nw --- -Ma 0 -Md 1000000 -Ms 8 -Mt 0 -Is 1.0 -Id -1.0 -It udp -Il 21 -If 0 -Ii 3 -Iv 32 
N -t 2.272767 -n 5 -e 9.965544
N -t 2.272767 -n 7 -e 9.965544
N -t 2.272767 -n 0 -e 99.999832
N -t 2.272767 -n 3 -e 9.965542
N -t 2.272767 -n 6 -e 9.965542
N -t 2.272767 -n 2 -e 9.965544
N -t 2.272767 -n 4 -e 9.965542
r -t 2.272850629 -Hs 5 -Hd -2 -Ni 5 -Nx 8.79 -Ny 49.73 -Nz 0.00 -Ne 9.965544 -Nl MAC -Nw --- -Ma 0 -Md 1000000 -Ms 8 -Mt 0 -Is 1.0 -Id -1.0 -It udp -Il 1 -If 0 -Ii 3 -Iv 32 
r -t 2.272875629 -Hs 5 -Hd -2 -Ni 5 -Nx 8.79 -Ny 49.73 -Nz 0.00 -Ne 9.965544 -Nl RTR -Nw --- -Ma 0 -Md 1000000 -Ms 8 -Mt 0 -Is 1.0 -Id -1.0 -It udp -Il 1 -If 0 -Ii 3 -Iv 32 
r -t 2.272875629 -Hs 5 -Hd -2 -Ni 5 -Nx 8.79 -Ny 49.73 -Nz 0.00 -Ne 9.965544 -Nl AGT -Nw --- -Ma 0 -Md 1000000 -Ms 8 -Mt 0 -Is 1.0 -Id -1.0 -It udp -Il 1 -If 0 -Ii 3 -Iv 32 
s -t 2.420345591 -Hs 5 -Hd -2 -Ni 5 -Nx 8.79 -Ny 49.73 -Nz 0.00 -Ne 9.963269 -Nl AGT -Nw --- -Ma 0 -Md 5000000 -Ms 0 -Mt 0 -Is 5.0 -Id -1.0 -It cbr -Il 1 -If 0 -Ii 4 -Iv 32 -Pn cbr -Pi 0 -Pf 0 -Po 0 
r -t 2.420345591 -Hs 5 -Hd -2 -Ni 5 
=======
s -t 0.006249547 -Hs 6 -Hd -2 -Ni 6 -Nx 59.94 -Ny 79.89 -Nz 0.00 -Ne 10.000000 -Nl AGT -Nw --- -Ma 0 -Md 6000000 -Ms 0 -Mt 0 -Is 6.0 -Id -1.0 -It tcp -Il 1 -If 0 -Ii 0 -Iv 32 -Pn tcp -Ps 0 -Pa 0 -Pf 0 -Po 0 
r -t 0.006249547 -Hs 6 -Hd -2 -Ni 6 -Nx 59.94 -Ny 79.89 -Nz 0.00 -Ne 10.000000 -Nl RTR -Nw --- -Ma 0 -Md 6000000 -Ms 0 -Mt 0 -Is 6.0 -Id -1.0 -It tcp -Il 1 -If 0 -Ii 0 -Iv 32 -Pn tcp -Ps 0 -Pa 0 -Pf 0 -Po 0 
s -t 0.006249547 -Hs 6 -Hd -2 -Ni 6 -Nx 59.94 -Ny 79.89 -Nz 0.00 -Ne 10.000000 -Nl RTR -Nw --- -Ma 0 -Md 6000000 -Ms 0 -Mt 0 -Is 6.0 -Id -1.0 -It tcp -Il 1 -If 0 -Ii 0 -Iv 32 -Pn tcp -Ps 0 -Pa 0 -Pf 0 -Po 0 
s -t 0.006274547 -Hs 6 -Hd -2 -Ni 6 -Nx 59.94 -Ny 79.89 -Nz 0.00 -Ne 10.000000 -Nl MAC -Nw --- -Ma 0 -Md 6000000 -Ms ffff0008 -Mt 0 -Is 6.0 -Id -1.0 -It tcp -Il 21 -If 0 -Ii 0 -Iv 32 -Pn tcp -Ps 0 -Pa 0 -Pf 0 -Po 0 
N -t 0.006275 -n 27 -e 9.999998
N -t 0.006275 -n 11 -e 9.999998
N -t 0.006275 -n 29 -e 9.999998
N -t 0.006275 -n 43 -e 9.999998
N -t 0.006275 -n 5 -e 9.999998
N -t 0.006275 -n 2 -e 9.999998
N -t 0.006275 -n 34 -e 9.999998
N -t 0.006275 -n 24 -e 9.999998
N -t 0.006275 -n 19 -e 9.999998
N -t 0.006275 -n 31 -e 9.999998
N -t 0.006275 -n 37 -e 9.999998
N -t 0.006275 -n 14 -e 9.999998
N -t 0.006275 -n 10 -e 9.999998
N -t 0.006275 -n 0 -e 99.999958
N -t 0.006275 -n 30 -e 9.999998
N -t 0.006275 -n 8 -e 9.999998
N -t 0.006275 -n 40 -e 9.999998
N -t 0.006275 -n 41 -e 9.999998
N -t 0.006275 -n 38 -e 9.999998
N -t 0.006275 -n 36 -e 9.999998
N -t 0.006275 -n 25 -e 9.999998
N -t 0.006275 -n 23 -e 9.999998
N -t 0.006275 -n 18 -e 9.999998
N -t 0.006275 -n 12 -e 9.999998
N -t 0.006275 -n 3 -e 9.999998
N -t 0.006275 -n 9 -e 9.999998
N -t 0.006275 -n 33 -e 9.999998
N -t 0.006275 -n 17 -e 9.999998
N -t 0.006275 -n 28 -e 9.999998
N -t 0.006275 -n 4 -e 9.999998
N -t 0.006275 -n 44 -e 9.999998
N -t 0.006275 -n 7 -e 9.999998
N -t 0.006275 -n 21 -e 9.999998
N -t 0.006275 -n 42 -e 9.999998
N -t 0.006275 -n 1 -e 9.999998
N -t 0.006275 -n 39 -e 9.999998
N -t 0.006275 -n 32 -e 9.999998
N -t 0.006275 -n 13 -e 9.999998
N -t 0.006275 -n 16 -e 9.999998
N -t 0.006275 -n 15 -e 9.999998
N -t 0.006275 -n 26 -e 9.999998
N -t 0.006275 -n 20 -e 9.999998
N -t 0.006275 -n 22 -e 9.999998
N -t 0.006275 -n 35 -e 9.999998
r -t 0.006358571 -Hs 27 -Hd -2 -Ni 27 -Nx 63.99 -Ny 74.11 -Nz 0.00 -Ne 9.999998 -Nl MAC -Nw --- -Ma 0 -Md 6000000 -Ms ffff0008 -Mt 0 -Is 6.0 -Id -1.0 -It tcp -Il 1 -If 0 -Ii 0 -Iv 32 -Pn tcp -Ps 0 -Pa 0 -Pf 1 -Po 0 
r -t 0.006358575 -Hs 11 -Hd -2 -Ni 11 -Nx 66.34 -Ny 74.60 -Nz 0.00 -Ne 9.999998 -Nl MAC -Nw --- -Ma 0 -Md 6000000 -Ms ffff0008 -Mt 0 -Is 6.0 -Id -1.0 -It tcp -Il 1 -If 0 -Ii 0 -Iv 32 -Pn tcp -Ps 0 -Pa 0 -Pf 1 -Po 0 
r -t 0.006358591 -Hs 29 -Hd -2 -Ni 29 -Nx 58.92 -Ny 92.96 -Nz 0.00 -Ne 9.999998 -Nl MAC -Nw --- -Ma 0 -Md 6000000 -Ms ffff0008 -Mt 0 -Is 6.0 -Id -1.0 -It tcp -Il 1 -If 0 -Ii 0 -Iv 32 -Pn tcp -Ps 0 -Pa 0 -Pf 1 -Po 0 
r -t 0.006358612 -Hs 43 -Hd -2 -Ni 43 -Nx 78.31 -Ny 86.39 -Nz 0.00 -Ne 9.999998 -Nl MAC -Nw --- -Ma 0 -Md 6000000 -Ms ffff0008 -Mt 0 -Is 6.0 -Id -1.0 -It tcp -Il 1 -If 0 -Ii 0 -Iv 32 -Pn tcp -Ps 0 -Pa 0 -Pf 1 -Po 0 
r -t 0.006358616 -Hs 5 -Hd -2 -Ni 5 -Nx 41.21 -Ny 88.79 -Nz 0.00 -Ne 9.999998 -Nl MAC -Nw --- -Ma 0 -Md 6000000 -Ms ffff0008 -Mt 0 -Is 6.0 -Id -1.0 -It tcp -Il 1 -If 0 -Ii 0 -Iv 32 -Pn tcp -Ps 0 -Pa 0 -Pf 1 -Po 0 
r -t 0.006358628 -Hs 2 -Hd -2 -Ni 2 -Nx 44.31 -Ny 98.35 -Nz 0.00 -Ne 9.999998 -Nl MAC -Nw --- -Ma 0 -Md 6000000 -Ms ffff0008 -Mt 0 -Is 6.0 -Id -1.0 -It tcp -Il 1 -If 0 -Ii 0 -Iv 32 -Pn tcp -Ps 0 -Pa 0 -Pf 1 -Po 0 
r -t 0.006358633 -Hs 34 -Hd -2 -Ni 34 -Nx 42.82 -Ny 98.96 -Nz 0.00 -Ne 9.999998 -Nl MAC -Nw --- -Ma 0 -Md 6000000 -Ms ffff0008 -Mt 0 -Is 6.0 -Id -1.0 -It tcp -Il 1 -If 0 -Ii 0 -Iv 32 -Pn tcp -Ps 0 -Pa 0 -Pf 1 -Po 0 
r -t 0.006358639 -Hs 24 -Hd -2 -Ni 24 -Nx 49.27 -Ny 54.64 -Nz 0.00 -Ne 9.999998 -Nl MAC -Nw --- -Ma 0 -Md 6000000 -Ms ffff0008 -Mt 0 -Is 6.0 -Id -1.0 -It tcp -Il 1 -If 0 -Ii 0 -Iv 32 -Pn tcp -Ps 0 -Pa 0 -Pf 1 -Po 0 
r -t 0.006358641 -Hs 19 -Hd -2 -Ni 19 -Nx 33.21 -Ny 71.41 -Nz 0.00 -Ne 9.999998 -Nl MAC -Nw --- -Ma 0 -Md 6000000 -Ms ffff0008 -Mt 0 -Is 6.0 -Id -1.0 -It tcp -Il 1 -If 0 -Ii 0 -Iv 32 -Pn tcp -Ps 0 -Pa 0 -Pf 1 -Po 0 
r -t 0.006358641 -Hs 31 -Hd -2 -Ni 31 -Nx 68.85 -Ny 53.28 -Nz 0.00 -Ne 9.999998 -Nl MAC -Nw --- -Ma 0 -Md 6000000 -Ms ffff0008 -Mt 0 -Is 6.0 -Id -1.0 -It tcp -Il 1 -If 0 -Ii 0 -Iv 32 -Pn tcp -Ps 0 -Pa 0 -Pf 1 -Po 0 
r -t 0.006358646 -Hs 37 -Hd -2 -Ni 37 -Nx 30.39 -Ny 81.84 -Nz 0.00 -Ne 9.999998 -Nl MAC -Nw --- -Ma 0 -Md 6000000 -Ms ffff0008 -Mt 0 -Is 6.0 -Id -1.0 -It tcp -Il 1 -If 0 -Ii 0 -Iv 32 -Pn tcp -Ps 0 -Pa 0 -Pf 1 -Po 0 
r -t 0.006358646 -Hs 14 -Hd -2 -Ni 14 -Nx 88.64 -Ny 87.50 -Nz 0.00 -Ne 9.999998 -Nl MAC -Nw --- -Ma 0 -Md 6000000 -Ms ffff0008 -Mt 0 -Is 6.0 -Id -1.0 -It tcp -Il 1 -If 0 -Ii 0 -Iv 32 -Pn tcp -Ps 0 -Pa 0 -Pf 1 -Po 0 
r -t 0.006358647 -Hs 10 -Hd -2 -Ni 10 -Nx 62.74 -Ny 49.95 -Nz 0.00 -Ne 9.999998 -Nl MAC -Nw --- -Ma 0 -Md 6000000 -Ms ffff0008 -Mt 0 -Is 6.0 -Id -1.0 -It tcp -Il 1 -If 0 -Ii 0 -Iv 32 -Pn tcp -Ps 0 -Pa 0 -Pf 1 -Po 0 
r -t 0.006358652 -Hs 0 -Hd -2 -Ni 0 -Nx 50.00 -Ny 50.00 -Nz 0.00 -Ne 99.999958 -Nl MAC -Nw --- -Ma 0 -Md 6000000 -Ms ffff0008 -Mt 0 -Is 6.0 -Id -1.0 -It tcp -Il 1 -If 0 -Ii 0 -Iv 32 -Pn tcp -Ps 0 -Pa 0 -Pf 1 -Po 0 
r -t 0.006358660 -Hs 30 -Hd -2 -Ni 30 -Nx 29.02 -Ny 66.00 -Nz 0.00 -Ne 9.999998 -Nl MAC -Nw --- -Ma 0 -Md 6000000 -Ms ffff0008 -Mt 0 -Is 6.0 -Id -1.0 -It tcp -Il 1 -If 0 -Ii 0 -Iv 32 -Pn tcp -Ps 0 -Pa 0 -Pf 1 -Po 0 
r -t 0.006358665 -Hs 8 -Hd -2 -Ni 8 -Nx 94.47 -Ny 87.25 -Nz 0.00 -Ne 9.999998 -Nl MAC -Nw --- -Ma 0 -Md 6000000 -Ms ffff0008 -Mt 0 -Is 6.0 -Id -1.0 -It tcp -Il 1 -If 0 -Ii 0 -Iv 32 -Pn tcp -Ps 0 -Pa 0 -Pf 1 -Po 0 
r -t 0.006358667 -Hs 40 -Hd -2 -Ni 40 -Nx 62.43 -Ny 44.13 -Nz 0.00 -Ne 9.999998 -Nl MAC -Nw --- -Ma 0 -Md 6000000 -Ms ffff0008 -Mt 0 -Is 6.0 -Id -1.0 -It tcp -Il 1 -If 0 -Ii 0 -Iv 32 -Pn tcp -Ps 0 -Pa 0 -Pf 1 -Po 0 
r -t 0.006358672 -Hs 41 -Hd -2 -Ni 41 -Nx 93.68 -Ny 96.02 -Nz 0.00 -Ne 9.999998 -Nl MAC -Nw --- -Ma 0 -Md 6000000 -Ms ffff0008 -Mt 0 -Is 6.0 -Id -1.0 -It tcp -Il 1 -If 0 -Ii 0 -Iv 32 -Pn tcp -Ps 0 -Pa 0 -Pf 1 -Po 0 
r -t 0.006358675 -Hs 38 -Hd -2 -Ni 38 -Nx 23.52 -Ny 67.66 -Nz 0.00 -Ne 9.999998 -Nl MAC -Nw --- -Ma 0 -Md 6000000 -Ms ffff0008 -Mt 0 -Is 6.0 -Id -1.0 -It tcp -Il 1 -If 0 -Ii 0 -Iv 32 -Pn tcp -Ps 0 -Pa 0 -Pf 1 -Po 0 
r -t 0.006358685 -Hs 36 -Hd -2 -Ni 36 -Nx 74.10 -Ny 40.99 -Nz 0.00 -Ne 9.999998 -Nl MAC -Nw --- -Ma 0 -Md 6000000 -Ms ffff0008 -Mt 0 -Is 6.0 -Id -1.0 -It tcp -Il 1 -If 0 -Ii 0 -Iv 32 -Pn tcp -Ps 0 -Pa 0 -Pf 1 -Po 0 
r -t 0.006358689 -Hs 25 -Hd -2 -Ni 25 -Nx 63.61 -Ny 37.40 -Nz 0.00 -Ne 9.999998 -Nl MAC -Nw --- -Ma 0 -Md 6000000 -Ms ffff0008 -Mt 0 -Is 6.0 -Id -1.0 -It tcp -Il 1 -If 0 -Ii 0 -Iv 32 -Pn tcp -Ps 0 -Pa 0 -Pf 1 -Po 0 
r -t 0.006358696 -Hs 23 -Hd -2 -Ni 23 -Nx 57.59 -Ny 35.15 -Nz 0.00 -Ne 9.999998 -Nl MAC -Nw --- -Ma 0 -Md 6000000 -Ms ffff0008 -Mt 0 -Is 6.0 -Id -1.0 -It tcp -Il 1 -If 0 -Ii 0 -Iv 32 -Pn tcp -Ps 0 -Pa 0 -Pf 1 -Po 0 
r -t 0.006358701 -Hs 18 -Hd -2 -Ni 18 -Nx 14.73 -Ny 88.88 -Nz 0.00 -Ne 9.999998 -Nl MAC -Nw --- -Ma 0 -Md 6000000 -Ms ffff0008 -Mt 0 -Is 6.0 -Id -1.0 -It tcp -Il 1 -If 0 -Ii 0 -Iv 32 -Pn tcp -Ps 0 -Pa 0 -Pf 1 -Po 0 
r -t 0.006358707 -Hs 12 -Hd -2 -Ni 12 -Nx 18.79 -Ny 55.27 -Nz 0.00 -Ne 9.999998 -Nl MAC -Nw --- -Ma 0 -Md 6000000 -Ms ffff0008 -Mt 0 -Is 6.0 -Id -1.0 -It tcp -Il 1 -If 0 -Ii 0 -Iv 32 -Pn tcp -Ps 0 -Pa 0 -Pf 1 -Po 0 
r -t 0.006358708 -Hs 3 -Hd -2 -Ni 3 -Nx 11.75 -Ny 77.96 -Nz 0.00 -Ne 9.999998 -Nl MAC -Nw --- -Ma 0 -Md 6000000 -Ms ffff0008 -Mt 0 -Is 6.0 -Id -1.0 -It tcp -Il 1 -If 0 -Ii 0 -Iv 32 -Pn tcp -Ps 0 -Pa 0 -Pf 1 -Po 0 
r -t 0.006358712 -Hs 9 -Hd -2 -Ni 9 -Nx 80.41 -Ny 34.79 -Nz 0.00 -Ne 9.999998 -Nl MAC -Nw --- -Ma 0 -Md 6000000 -Ms ffff0008 -Mt 0 -Is 6.0 -Id -1.0 -It tcp -Il 1 -If 0 -Ii 0 -Iv 32 -Pn tcp -Ps 0 -Pa 0 -Pf 1 -Po 0 
r -t 0.006358720 -Hs 33 -Hd -2 -Ni 33 -Nx 8.53 -Ny 73.76 -Nz 0.00 -Ne 9.999998 -Nl MAC -Nw --- -Ma 0 -Md 6000000 -Ms ffff0008 -Mt 0 -Is 6.0 -Id -1.0 -It tcp -Il 1 -If 0 -Ii 0 -Iv 32 -Pn tcp -Ps 0 -Pa 0 -Pf 1 -Po 0 
r -t 0.006358729 -Hs 17 -Hd -2 -Ni 17 -Nx 70.76 -Ny 26.35 -Nz 0.00 -Ne 9.999998 -Nl MAC -Nw --- -Ma 0 -Md 6000000 -Ms ffff0008 -Mt 0 -Is 6.0 -Id -1.0 -It tcp -Il 1 -If 0 -Ii 0 -Iv 32 -Pn tcp -Ps 0 -Pa 0 -Pf 1 -Po 0 
r -t 0.006358741 -Hs 28 -Hd -2 -Ni 28 -Nx 1.95 -Ny 75.64 -Nz 0.00 -Ne 9.999998 -Nl MAC -Nw --- -Ma 0 -Md 6000000 -Ms ffff0008 -Mt 0 -Is 6.0 -Id -1.0 -It tcp -Il 1 -If 0 -Ii 0 -Iv 32 -Pn tcp -Ps 0 -Pa 0 -Pf 1 -Po 0 
r -t 0.006358742 -Hs 4 -Hd -2 -Ni 4 -Nx 50.87 -Ny 22.28 -Nz 0.00 -Ne 9.999998 -Nl MAC -Nw --- -Ma 0 -Md 6000000 -Ms ffff0008 -Mt 0 -Is 6.0 -Id -1.0 -It tcp -Il 1 -If 0 -Ii 0 -Iv 32 -Pn tcp -Ps 0 -Pa 0 -Pf 1 -Po 0 
r -t 0.006358745 -Hs 44 -Hd -2 -Ni 44 -Nx 60.66 -Ny 20.65 -Nz 0.00 -Ne 9.999998 -Nl MAC -Nw --- -Ma 0 -Md 6000000 -Ms ffff0008 -Mt 0 -Is 6.0 -Id -1.0 -It tcp -Il 1 -If 0 -Ii 0 -Iv 32 -Pn tcp -Ps 0 -Pa 0 -Pf 1 -Po 0 
r -t 0.006358747 -Hs 7 -Hd -2 -Ni 7 -Nx 1.18 -Ny 91.81 -Nz 0.00 -Ne 9.999998 -Nl MAC -Nw --- -Ma 0 -Md 6000000 -Ms ffff0008 -Mt 0 -Is 6.0 -Id -1.0 -It tcp -Il 1 -If 0 -Ii 0 -Iv 32 -Pn tcp -Ps 0 -Pa 0 -Pf 1 -Po 0 
r -t 0.006358755 -Hs 21 -Hd -2 -Ni 21 -Nx 1.55 -Ny 57.98 -Nz 0.00 -Ne 9.999998 -Nl MAC -Nw --- -Ma 0 -Md 6000000 -Ms ffff0008 -Mt 0 -Is 6.0 -Id -1.0 -It tcp -Il 1 -If 0 -Ii 0 -Iv 32 -Pn tcp -Ps 0 -Pa 0 -Pf 1 -Po 0 
r -t 0.006358756 -Hs 42 -Hd -2 -Ni 42 -Nx 28.83 -Ny 25.56 -Nz 0.00 -Ne 9.999998 -Nl MAC -Nw --- -Ma 0 -Md 6000000 -Ms ffff0008 -Mt 0 -Is 6.0 -Id -1.0 -It tcp -Il 1 -If 0 -Ii 0 -Iv 32 -Pn tcp -Ps 0 -Pa 0 -Pf 1 -Po 0 
r -t 0.006358759 -Hs 1 -Hd -2 -Ni 1 -Nx 2.78 -Ny 52.39 -Nz 0.00 -Ne 9.999998 -Nl MAC -Nw --- -Ma 0 -Md 6000000 -Ms ffff0008 -Mt 0 -Is 6.0 -Id -1.0 -It tcp -Il 1 -If 0 -Ii 0 -Iv 32 -Pn tcp -Ps 0 -Pa 0 -Pf 1 -Po 0 
r -t 0.006358760 -Hs 39 -Hd -2 -Ni 39 -Nx 8.92 -Ny 41.41 -Nz 0.00 -Ne 9.999998 -Nl MAC -Nw --- -Ma 0 -Md 6000000 -Ms ffff0008 -Mt 0 -Is 6.0 -Id -1.0 -It tcp -Il 1 -If 0 -Ii 0 -Iv 32 -Pn tcp -Ps 0 -Pa 0 -Pf 1 -Po 0 
r -t 0.006358781 -Hs 32 -Hd -2 -Ni 32 -Nx 59.94 -Ny 9.64 -Nz 0.00 -Ne 9.999998 -Nl MAC -Nw --- -Ma 0 -Md 6000000 -Ms ffff0008 -Mt 0 -Is 6.0 -Id -1.0 -It tcp -Il 1 -If 0 -Ii 0 -Iv 32 -Pn tcp -Ps 0 -Pa 0 -Pf 1 -Po 0 
r -t 0.006358784 -Hs 13 -Hd -2 -Ni 13 -Nx 49.71 -Ny 9.59 -Nz 0.00 -Ne 9.999998 -Nl MAC -Nw --- -Ma 0 -Md 6000000 -Ms ffff0008 -Mt 0 -Is 6.0 -Id -1.0 -It tcp -Il 1 -If 0 -Ii 0 -Iv 32 -Pn tcp -Ps 0 -Pa 0 -Pf 1 -Po 0 
r -t 0.006358784 -Hs 16 -Hd -2 -Ni 16 -Nx 46.60 -Ny 10.09 -Nz 0.00 -Ne 9.999998 -Nl MAC -Nw --- -Ma 0 -Md 6000000 -Ms ffff0008 -Mt 0 -Is 6.0 -Id -1.0 -It tcp -Il 1 -If 0 -Ii 0 -Iv 32 -Pn tcp -Ps 0 -Pa 0 -Pf 1 -Po 0 
r -t 0.006358791 -Hs 15 -Hd -2 -Ni 15 -Nx 18.49 -Ny 19.52 -Nz 0.00 -Ne 9.999998 -Nl MAC -Nw --- -Ma 0 -Md 6000000 -Ms ffff0008 -Mt 0 -Is 6.0 -Id -1.0 -It tcp -Il 1 -If 0 -Ii 0 -Iv 32 -Pn tcp -Ps 0 -Pa 0 -Pf 1 -Po 0 
r -t 0.006358798 -Hs 26 -Hd -2 -Ni 26 -Nx 69.18 -Ny 5.12 -Nz 0.00 -Ne 9.999998 -Nl MAC -Nw --- -Ma 0 -Md 6000000 -Ms ffff0008 -Mt 0 -Is 6.0 -Id -1.0 -It tcp -Il 1 -If 0 -Ii 0 -Iv 32 -Pn tcp -Ps 0 -Pa 0 -Pf 1 -Po 0 
r -t 0.006358804 -Hs 20 -Hd -2 -Ni 20 -Nx 41.32 -Ny 4.99 -Nz 0.00 -Ne 9.999998 -Nl MAC -Nw --- -Ma 0 -Md 6000000 -Ms ffff0008 -Mt 0 -Is 6.0 -Id -1.0 -It tcp -Il 1 -If 0 -Ii 0 -Iv 32 -Pn tcp -Ps 0 -Pa 0 -Pf 1 -Po 0 
r -t 0.006358828 -Hs 22 -Hd -2 -Ni 22 -Nx 4.71 -Ny 16.29 -Nz 0.00 -Ne 9.999998 -Nl MAC -Nw --- -Ma 0 -Md 6000000 -Ms ffff0008 -Mt 0 -Is 6.0 -Id -1.0 -It tcp -Il 1 -If 0 -Ii 0 -Iv 32 -Pn tcp -Ps 0 -Pa 0 -Pf 1 -Po 0 
r -t 0.006358834 -Hs 35 -Hd -2 -Ni 35 -Nx 15.62 -Ny 6.00 -Nz 0.00 -Ne 9.999998 -Nl MAC -Nw --- -Ma 0 -Md 6000000 -Ms ffff0008 -Mt 0 -Is 6.0 -Id -1.0 -It tcp -Il 1 -If 0 -Ii 0 -Iv 32 -Pn tcp -Ps 0 -Pa 0 -Pf 1 -Po 0 
r -t 0.006383571 -Hs 27 -Hd -2 -Ni 27 -Nx 63.99 -Ny 74.11 -Nz 0.00 -Ne 9.999998 -Nl RTR -Nw --- -Ma 0 -Md 6000000 -Ms ffff0008 -Mt 0 -Is 6.0 -Id -1.0 -It tcp -Il 1 -If 0 -Ii 0 -Iv 32 -Pn tcp -Ps 0 -Pa 0 -Pf 1 -Po 0 
r -t 0.006383571 -Hs 27 -Hd -2 -Ni 27 -Nx 63.99 -Ny 74.11 -Nz 0.00 -Ne 9.999998 -Nl AGT -Nw --- -Ma 0 -Md 6000000 -Ms ffff0008 -Mt 0 -Is 6.0 -Id -1.0 -It tcp -Il 1 -If 0 -Ii 0 -Iv 32 -Pn tcp -Ps 0 -Pa 0 -Pf 1 -Po 0 
r -t 0.006383575 -Hs 11 -Hd -2 -Ni 11 -Nx 66.34 -Ny 74.60 -Nz 0.00 -Ne 9.999998 -Nl RTR -Nw --- -Ma 0 -Md 6000000 -Ms ffff0008 -Mt 0 -Is 6.0 -Id -1.0 -It tcp -Il 1 -If 0 -Ii 0 -Iv 32 -Pn tcp -Ps 0 -Pa 0 -Pf 1 -Po 0 
r -t 0.006383575 -Hs 11 -Hd -2 -Ni 11 -Nx 66.34 -Ny 74.60 -Nz 0.00 -Ne 9.999998 -Nl AGT -Nw --- -Ma 0 -Md 6000000 -Ms ffff0008 -Mt 0 -Is 6.0 -Id -1.0 -It tcp -Il 1 -If 0 -Ii 0 -Iv 32 -Pn tcp -Ps 0 -Pa 0 -Pf 1 -Po 0 
r -t 0.006383591 -Hs 29 -Hd -2 -Ni 29 -Nx 58.92 -Ny 92.96 -Nz 0.00 -Ne 9.999998 -Nl RTR -Nw --- -Ma 0 -Md 6000000 -Ms ffff0008 -Mt 0 -Is 6.0 -Id -1.0 -It tcp -Il 1 -If 0 -Ii 0 -Iv 32 -Pn tcp -Ps 0 -Pa 0 -Pf 1 -Po 0 
r -t 0.006383591 -Hs 29 -Hd -2 -Ni 29 -Nx 58.92 -Ny 92.96 -Nz 0.00 -Ne 9.999998 -Nl AGT -Nw --- -Ma 0 -Md 6000000 -Ms ffff0008 -Mt 0 -Is 6.0 -Id -1.0 -It tcp -Il 1 -If 0 -Ii 0 -Iv 32 -Pn tcp -Ps 0 -Pa 0 -Pf 1 -Po 0 
r -t 0.006383612 -Hs 43 -Hd -2 -Ni 43 -Nx 78.31 -Ny 86.39 -Nz 0.00 -Ne 9.999998 -Nl RTR -Nw --- -Ma 0 -Md 6000000 -Ms ffff0008 -Mt 0 -Is 6.0 -Id -1.0 -It tcp -Il 1 -If 0 -Ii 0 -Iv 32 -Pn tcp -Ps 0 -Pa 0 -Pf 1 -Po 0 
r -t 0.006383612 -Hs 43 -Hd -2 -Ni 43 -Nx 78.31 -Ny 86.39 -Nz 0.00 -Ne 9.999998 -Nl AGT -Nw --- -Ma 0 -Md 6000000 -Ms ffff0008 -Mt 0 -Is 6.0 -Id -1.0 -It tcp -Il 1 -If 0 -Ii 0 -Iv 32 -Pn tcp -Ps 0 -Pa 0 -Pf 1 -Po 0 