s -t 0.065967826 -Hs 20 -Hd -2 -Ni 20 -Nx 96.62 -Ny 19.39 -Nz 0.00 -Ne 9.999512 -Nl AGT -Nw --- -Ma 0 -Md 14000000 -Ms 0 -Mt 0 -Is 20.0 -Id -1.0 -It tcp -Il 0 -If 0 -Ii 0 -Iv 32 -Pn tcp -Ps 0 -Pa 0 -Pf 0 -Po 0 
r -t 0.065967826 -Hs 20 -Hd -2 -Ni 20 -Nx 96.62 -Ny 19.39 -Nz 0.00 -Ne 9.999512 -Nl RTR -Nw --- -Ma 0 -Md 14000000 -Ms 0 -Mt 0 -Is 20.0 -Id -1.0 -It tcp -Il 0 -If 0 -Ii 0 -Iv 32 -Pn tcp -Ps 0 -Pa 0 -Pf 0 -Po 0 
s -t 0.065967826 -Hs 20 -Hd -2 -Ni 20 -Nx 96.62 -Ny 19.39 -Nz 0.00 -Ne 9.999512 -Nl RTR -Nw --- -Ma 0 -Md 14000000 -Ms 0 -Mt 0 -Is 20.0 -Id -1.0 -It tcp -Il 0 -If 0 -Ii 0 -Iv 32 -Pn tcp -Ps 0 -Pa 0 -Pf 0 -Po 0 
s -t 0.065992826 -Hs 20 -Hd -2 -Ni 20 -Nx 96.62 -Ny 19.39 -Nz 0.00 -Ne 9.999512 -Nl MAC -Nw --- -Ma 0 -Md 14000000 -Ms ffff0008 -Mt 0 -Is 20.0 -Id -1.0 -It tcp -Il 20 -If 0 -Ii 0 -Iv 32 -Pn tcp -Ps 0 -Pa 0 -Pf 0 -Po 0 
N -t 0.065993 -n 34 -e 9.999511
N -t 0.065993 -n 31 -e 9.999511
N -t 0.065993 -n 8 -e 9.999511
N -t 0.065993 -n 23 -e 9.999511
N -t 0.065993 -n 4 -e 9.999511
N -t 0.065993 -n 1 -e 9.999511
N -t 0.065993 -n 19 -e 9.999511
N -t 0.065993 -n 22 -e 9.999511
N -t 0.065993 -n 9 -e 9.999511
N -t 0.065993 -n 11 -e 9.999511
N -t 0.065993 -n 25 -e 9.999511
N -t 0.065993 -n 40 -e 9.999511
N -t 0.065993 -n 21 -e 9.999511
N -t 0.065993 -n 24 -e 9.999511
N -t 0.065993 -n 14 -e 9.999511
N -t 0.065993 -n 32 -e 9.999511
N -t 0.065993 -n 3 -e 9.999511
N -t 0.065993 -n 38 -e 9.999511
N -t 0.065993 -n 30 -e 9.999511
N -t 0.065993 -n 37 -e 9.999511
N -t 0.065993 -n 0 -e 99.999960
N -t 0.065993 -n 26 -e 9.999511
N -t 0.065993 -n 13 -e 9.999511
N -t 0.065993 -n 33 -e 9.999511
N -t 0.065993 -n 17 -e 9.999511
N -t 0.065993 -n 39 -e 9.999511
N -t 0.065993 -n 5 -e 9.999511
N -t 0.065993 -n 12 -e 9.999511
N -t 0.065993 -n 16 -e 9.999511
N -t 0.065993 -n 27 -e 9.999511
N -t 0.065993 -n 15 -e 9.999511
N -t 0.065993 -n 36 -e 9.999511
N -t 0.065993 -n 28 -e 9.999511
N -t 0.065993 -n 10 -e 9.999511
N -t 0.065993 -n 35 -e 9.999511
N -t 0.065993 -n 29 -e 9.999511
N -t 0.065993 -n 18 -e 9.999511
N -t 0.065993 -n 7 -e 9.999511
N -t 0.065993 -n 2 -e 9.999511
N -t 0.065993 -n 6 -e 9.999511
r -t 0.066072865 -Hs 34 -Hd -2 -Ni 34 -Nx 89.60 -Ny 10.26 -Nz 0.00 -Ne 9.999511 -Nl MAC -Nw --- -Ma 0 -Md 14000000 -Ms ffff0008 -Mt 0 -Is 20.0 -Id -1.0 -It tcp -Il 0 -If 0 -Ii 0 -Iv 32 -Pn tcp -Ps 0 -Pa 0 -Pf 1 -Po 0 
r -t 0.066072871 -Hs 31 -Hd -2 -Ni 31 -Nx 85.40 -Ny 27.04 -Nz 0.00 -Ne 9.999511 -Nl MAC -Nw --- -Ma 0 -Md 14000000 -Ms ffff0008 -Mt 0 -Is 20.0 -Id -1.0 -It tcp -Il 0 -If 0 -Ii 0 -Iv 32 -Pn tcp -Ps 0 -Pa 0 -Pf 1 -Po 0 
r -t 0.066072880 -Hs 8 -Hd -2 -Ni 8 -Nx 81.34 -Ny 24.82 -Nz 0.00 -Ne 9.999511 -Nl MAC -Nw --- -Ma 0 -Md 14000000 -Ms ffff0008 -Mt 0 -Is 20.0 -Id -1.0 -It tcp -Il 0 -If 0 -Ii 0 -Iv 32 -Pn tcp -Ps 0 -Pa 0 -Pf 1 -Po 0 
r -t 0.066072888 -Hs 23 -Hd -2 -Ni 23 -Nx 88.92 -Ny 2.62 -Nz 0.00 -Ne 9.999511 -Nl MAC -Nw --- -Ma 0 -Md 14000000 -Ms ffff0008 -Mt 0 -Is 20.0 -Id -1.0 -It tcp -Il 0 -If 0 -Ii 0 -Iv 32 -Pn tcp -Ps 0 -Pa 0 -Pf 1 -Po 0 
r -t 0.066072890 -Hs 4 -Hd -2 -Ni 4 -Nx 89.60 -Ny 37.07 -Nz 0.00 -Ne 9.999511 -Nl MAC -Nw --- -Ma 0 -Md 14000000 -Ms ffff0008 -Mt 0 -Is 20.0 -Id -1.0 -It tcp -Il 0 -If 0 -Ii 0 -Iv 32 -Pn tcp -Ps 0 -Pa 0 -Pf 1 -Po 0 
r -t 0.066072897 -Hs 1 -Hd -2 -Ni 1 -Nx 77.02 -Ny 27.48 -Nz 0.00 -Ne 9.999511 -Nl MAC -Nw --- -Ma 0 -Md 14000000 -Ms ffff0008 -Mt 0 -Is 20.0 -Id -1.0 -It tcp -Il 0 -If 0 -Ii 0 -Iv 32 -Pn tcp -Ps 0 -Pa 0 -Pf 1 -Po 0 
r -t 0.066072898 -Hs 19 -Hd -2 -Ni 19 -Nx 79.52 -Ny 32.67 -Nz 0.00 -Ne 9.999511 -Nl MAC -Nw --- -Ma 0 -Md 14000000 -Ms ffff0008 -Mt 0 -Is 20.0 -Id -1.0 -It tcp -Il 0 -If 0 -Ii 0 -Iv 32 -Pn tcp -Ps 0 -Pa 0 -Pf 1 -Po 0 
r -t 0.066072906 -Hs 22 -Hd -2 -Ni 22 -Nx 80.45 -Ny 1.84 -Nz 0.00 -Ne 9.999511 -Nl MAC -Nw --- -Ma 0 -Md 14000000 -Ms ffff0008 -Mt 0 -Is 20.0 -Id -1.0 -It tcp -Il 0 -If 0 -Ii 0 -Iv 32 -Pn tcp -Ps 0 -Pa 0 -Pf 1 -Po 0 
r -t 0.066072915 -Hs 9 -Hd -2 -Ni 9 -Nx 88.87 -Ny 44.98 -Nz 0.00 -Ne 9.999511 -Nl MAC -Nw --- -Ma 0 -Md 14000000 -Ms ffff0008 -Mt 0 -Is 20.0 -Id -1.0 -It tcp -Il 0 -If 0 -Ii 0 -Iv 32 -Pn tcp -Ps 0 -Pa 0 -Pf 1 -Po 0 
r -t 0.066072916 -Hs 11 -Hd -2 -Ni 11 -Nx 69.77 -Ny 16.98 -Nz 0.00 -Ne 9.999511 -Nl MAC -Nw --- -Ma 0 -Md 14000000 -Ms ffff0008 -Mt 0 -Is 20.0 -Id -1.0 -It tcp -Il 0 -If 0 -Ii 0 -Iv 32 -Pn tcp -Ps 0 -Pa 0 -Pf 1 -Po 0 
r -t 0.066072917 -Hs 25 -Hd -2 -Ni 25 -Nx 76.49 -Ny 0.91 -Nz 0.00 -Ne 9.999511 -Nl MAC -Nw --- -Ma 0 -Md 14000000 -Ms ffff0008 -Mt 0 -Is 20.0 -Id -1.0 -It tcp -Il 0 -If 0 -Ii 0 -Iv 32 -Pn tcp -Ps 0 -Pa 0 -Pf 1 -Po 0 
r -t 0.066072922 -Hs 40 -Hd -2 -Ni 40 -Nx 70.09 -Ny 30.61 -Nz 0.00 -Ne 9.999511 -Nl MAC -Nw --- -Ma 0 -Md 14000000 -Ms ffff0008 -Mt 0 -Is 20.0 -Id -1.0 -It tcp -Il 0 -If 0 -Ii 0 -Iv 32 -Pn tcp -Ps 0 -Pa 0 -Pf 1 -Po 0 
r -t 0.066072933 -Hs 21 -Hd -2 -Ni 21 -Nx 70.57 -Ny 38.23 -Nz 0.00 -Ne 9.999511 -Nl MAC -Nw --- -Ma 0 -Md 14000000 -Ms ffff0008 -Mt 0 -Is 20.0 -Id -1.0 -It tcp -Il 0 -If 0 -Ii 0 -Iv 32 -Pn tcp -Ps 0 -Pa 0 -Pf 1 -Po 0 
r -t 0.066072934 -Hs 24 -Hd -2 -Ni 24 -Nx 66.14 -Ny 9.03 -Nz 0.00 -Ne 9.999511 -Nl MAC -Nw --- -Ma 0 -Md 14000000 -Ms ffff0008 -Mt 0 -Is 20.0 -Id -1.0 -It tcp -Il 0 -If 0 -Ii 0 -Iv 32 -Pn tcp -Ps 0 -Pa 0 -Pf 1 -Po 0 
r -t 0.066072960 -Hs 14 -Hd -2 -Ni 14 -Nx 57.74 -Ny 29.77 -Nz 0.00 -Ne 9.999511 -Nl MAC -Nw --- -Ma 0 -Md 14000000 -Ms ffff0008 -Mt 0 -Is 20.0 -Id -1.0 -It tcp -Il 0 -If 0 -Ii 0 -Iv 32 -Pn tcp -Ps 0 -Pa 0 -Pf 1 -Po 0 
r -t 0.066072963 -Hs 32 -Hd -2 -Ni 32 -Nx 81.60 -Ny 57.49 -Nz 0.00 -Ne 9.999511 -Nl MAC -Nw --- -Ma 0 -Md 14000000 -Ms ffff0008 -Mt 0 -Is 20.0 -Id -1.0 -It tcp -Il 0 -If 0 -Ii 0 -Iv 32 -Pn tcp -Ps 0 -Pa 0 -Pf 1 -Po 0 
r -t 0.066072995 -Hs 3 -Hd -2 -Ni 3 -Nx 62.27 -Ny 56.46 -Nz 0.00 -Ne 9.999511 -Nl MAC -Nw --- -Ma 0 -Md 14000000 -Ms ffff0008 -Mt 0 -Is 20.0 -Id -1.0 -It tcp -Il 0 -If 0 -Ii 0 -Iv 32 -Pn tcp -Ps 0 -Pa 0 -Pf 1 -Po 0 
r -t 0.066072999 -Hs 38 -Hd -2 -Ni 38 -Nx 66.23 -Ny 61.51 -Nz 0.00 -Ne 9.999511 -Nl MAC -Nw --- -Ma 0 -Md 14000000 -Ms ffff0008 -Mt 0 -Is 20.0 -Id -1.0 -It tcp -Il 0 -If 0 -Ii 0 -Iv 32 -Pn tcp -Ps 0 -Pa 0 -Pf 1 -Po 0 
r -t 0.066073002 -Hs 30 -Hd -2 -Ni 30 -Nx 46.69 -Ny 2.77 -Nz 0.00 -Ne 9.999511 -Nl MAC -Nw --- -Ma 0 -Md 14000000 -Ms ffff0008 -Mt 0 -Is 20.0 -Id -1.0 -It tcp -Il 0 -If 0 -Ii 0 -Iv 32 -Pn tcp -Ps 0 -Pa 0 -Pf 1 -Po 0 
r -t 0.066073009 -Hs 37 -Hd -2 -Ni 37 -Nx 54.45 -Ny 54.37 -Nz 0.00 -Ne 9.999511 -Nl MAC -Nw --- -Ma 0 -Md 14000000 -Ms ffff0008 -Mt 0 -Is 20.0 -Id -1.0 -It tcp -Il 0 -If 0 -Ii 0 -Iv 32 -Pn tcp -Ps 0 -Pa 0 -Pf 1 -Po 0 
r -t 0.066073012 -Hs 0 -Hd -2 -Ni 0 -Nx 50.00 -Ny 50.00 -Nz 0.00 -Ne 99.999960 -Nl MAC -Nw --- -Ma 0 -Md 14000000 -Ms ffff0008 -Mt 0 -Is 20.0 -Id -1.0 -It tcp -Il 0 -If 0 -Ii 0 -Iv 32 -Pn tcp -Ps 0 -Pa 0 -Pf 1 -Po 0 
r -t 0.066073013 -Hs 26 -Hd -2 -Ni 26 -Nx 53.30 -Ny 55.16 -Nz 0.00 -Ne 9.999511 -Nl MAC -Nw --- -Ma 0 -Md 14000000 -Ms ffff0008 -Mt 0 -Is 20.0 -Id -1.0 -It tcp -Il 0 -If 0 -Ii 0 -Iv 32 -Pn tcp -Ps 0 -Pa 0 -Pf 1 -Po 0 
r -t 0.066073033 -Hs 13 -Hd -2 -Ni 13 -Nx 34.90 -Ny 25.09 -Nz 0.00 -Ne 9.999511 -Nl MAC -Nw --- -Ma 0 -Md 14000000 -Ms ffff0008 -Mt 0 -Is 20.0 -Id -1.0 -It tcp -Il 0 -If 0 -Ii 0 -Iv 32 -Pn tcp -Ps 0 -Pa 0 -Pf 1 -Po 0 
r -t 0.066073035 -Hs 33 -Hd -2 -Ni 33 -Nx 36.13 -Ny 3.36 -Nz 0.00 -Ne 9.999511 -Nl MAC -Nw --- -Ma 0 -Md 14000000 -Ms ffff0008 -Mt 0 -Is 20.0 -Id -1.0 -It tcp -Il 0 -If 0 -Ii 0 -Iv 32 -Pn tcp -Ps 0 -Pa 0 -Pf 1 -Po 0 
r -t 0.066073037 -Hs 17 -Hd -2 -Ni 17 -Nx 82.22 -Ny 81.06 -Nz 0.00 -Ne 9.999511 -Nl MAC -Nw --- -Ma 0 -Md 14000000 -Ms ffff0008 -Mt 0 -Is 20.0 -Id -1.0 -It tcp -Il 0 -If 0 -Ii 0 -Iv 32 -Pn tcp -Ps 0 -Pa 0 -Pf 1 -Po 0 
r -t 0.066073057 -Hs 39 -Hd -2 -Ni 39 -Nx 61.74 -Ny 79.24 -Nz 0.00 -Ne 9.999511 -Nl MAC -Nw --- -Ma 0 -Md 14000000 -Ms ffff0008 -Mt 0 -Is 20.0 -Id -1.0 -It tcp -Il 0 -If 0 -Ii 0 -Iv 32 -Pn tcp -Ps 0 -Pa 0 -Pf 1 -Po 0 
r -t 0.066073060 -Hs 5 -Hd -2 -Ni 5 -Nx 94.98 -Ny 89.61 -Nz 0.00 -Ne 9.999511 -Nl MAC -Nw --- -Ma 0 -Md 14000000 -Ms ffff0008 -Mt 0 -Is 20.0 -Id -1.0 -It tcp -Il 0 -If 0 -Ii 0 -Iv 32 -Pn tcp -Ps 0 -Pa 0 -Pf 1 -Po 0 
r -t 0.066073068 -Hs 12 -Hd -2 -Ni 12 -Nx 49.81 -Ny 74.94 -Nz 0.00 -Ne 9.999511 -Nl MAC -Nw --- -Ma 0 -Md 14000000 -Ms ffff0008 -Mt 0 -Is 20.0 -Id -1.0 -It tcp -Il 0 -If 0 -Ii 0 -Iv 32 -Pn tcp -Ps 0 -Pa 0 -Pf 1 -Po 0 
r -t 0.066073072 -Hs 16 -Hd -2 -Ni 16 -Nx 24.44 -Ny 34.60 -Nz 0.00 -Ne 9.999511 -Nl MAC -Nw --- -Ma 0 -Md 14000000 -Ms ffff0008 -Mt 0 -Is 20.0 -Id -1.0 -It tcp -Il 0 -If 0 -Ii 0 -Iv 32 -Pn tcp -Ps 0 -Pa 0 -Pf 1 -Po 0 
r -t 0.066073083 -Hs 27 -Hd -2 -Ni 27 -Nx 51.57 -Ny 81.88 -Nz 0.00 -Ne 9.999511 -Nl MAC -Nw --- -Ma 0 -Md 14000000 -Ms ffff0008 -Mt 0 -Is 20.0 -Id -1.0 -It tcp -Il 0 -If 0 -Ii 0 -Iv 32 -Pn tcp -Ps 0 -Pa 0 -Pf 1 -Po 0 
r -t 0.066073083 -Hs 15 -Hd -2 -Ni 15 -Nx 29.03 -Ny 56.36 -Nz 0.00 -Ne 9.999511 -Nl MAC -Nw --- -Ma 0 -Md 14000000 -Ms ffff0008 -Mt 0 -Is 20.0 -Id -1.0 -It tcp -Il 0 -If 0 -Ii 0 -Iv 32 -Pn tcp -Ps 0 -Pa 0 -Pf 1 -Po 0 
r -t 0.066073093 -Hs 36 -Hd -2 -Ni 36 -Nx 59.35 -Ny 90.17 -Nz 0.00 -Ne 9.999511 -Nl MAC -Nw --- -Ma 0 -Md 14000000 -Ms ffff0008 -Mt 0 -Is 20.0 -Id -1.0 -It tcp -Il 0 -If 0 -Ii 0 -Iv 32 -Pn tcp -Ps 0 -Pa 0 -Pf 1 -Po 0 
r -t 0.066073096 -Hs 28 -Hd -2 -Ni 28 -Nx 23.97 -Ny 54.86 -Nz 0.00 -Ne 9.999511 -Nl MAC -Nw --- -Ma 0 -Md 14000000 -Ms ffff0008 -Mt 0 -Is 20.0 -Id -1.0 -It tcp -Il 0 -If 0 -Ii 0 -Iv 32 -Pn tcp -Ps 0 -Pa 0 -Pf 1 -Po 0 
r -t 0.066073104 -Hs 10 -Hd -2 -Ni 10 -Nx 32.65 -Ny 72.84 -Nz 0.00 -Ne 9.999511 -Nl MAC -Nw --- -Ma 0 -Md 14000000 -Ms ffff0008 -Mt 0 -Is 20.0 -Id -1.0 -It tcp -Il 0 -If 0 -Ii 0 -Iv 32 -Pn tcp -Ps 0 -Pa 0 -Pf 1 -Po 0 
r -t 0.066073108 -Hs 35 -Hd -2 -Ni 35 -Nx 30.60 -Ny 72.19 -Nz 0.00 -Ne 9.999511 -Nl MAC -Nw --- -Ma 0 -Md 14000000 -Ms ffff0008 -Mt 0 -Is 20.0 -Id -1.0 -It tcp -Il 0 -If 0 -Ii 0 -Iv 32 -Pn tcp -Ps 0 -Pa 0 -Pf 1 -Po 0 
r -t 0.066073125 -Hs 29 -Hd -2 -Ni 29 -Nx 18.69 -Ny 63.88 -Nz 0.00 -Ne 9.999511 -Nl MAC -Nw --- -Ma 0 -Md 14000000 -Ms ffff0008 -Mt 0 -Is 20.0 -Id -1.0 -It tcp -Il 0 -If 0 -Ii 0 -Iv 32 -Pn tcp -Ps 0 -Pa 0 -Pf 1 -Po 0 
r -t 0.066073134 -Hs 18 -Hd -2 -Ni 18 -Nx 28.71 -Ny 82.15 -Nz 0.00 -Ne 9.999511 -Nl MAC -Nw --- -Ma 0 -Md 14000000 -Ms ffff0008 -Mt 0 -Is 20.0 -Id -1.0 -It tcp -Il 0 -If 0 -Ii 0 -Iv 32 -Pn tcp -Ps 0 -Pa 0 -Pf 1 -Po 0 
r -t 0.066073135 -Hs 7 -Hd -2 -Ni 7 -Nx 41.22 -Ny 93.65 -Nz 0.00 -Ne 9.999511 -Nl MAC -Nw --- -Ma 0 -Md 14000000 -Ms ffff0008 -Mt 0 -Is 20.0 -Id -1.0 -It tcp -Il 0 -If 0 -Ii 0 -Iv 32 -Pn tcp -Ps 0 -Pa 0 -Pf 1 -Po 0 
r -t 0.066073151 -Hs 2 -Hd -2 -Ni 2 -Nx 22.66 -Ny 82.84 -Nz 0.00 -Ne 9.999511 -Nl MAC -Nw --- -Ma 0 -Md 14000000 -Ms ffff0008 -Mt 0 -Is 20.0 -Id -1.0 -It tcp -Il 0 -If 0 -Ii 0 -Iv 32 -Pn tcp -Ps 0 -Pa 0 -Pf 1 -Po 0 
r -t 0.066073169 -Hs 6 -Hd -2 -Ni 6 -Nx 18.32 -Ny 85.93 -Nz 0.00 -Ne 9.999511 -Nl MAC -Nw --- -Ma 0 -Md 14000000 -Ms ffff0008 -Mt 0 -Is 20.0 -Id -1.0 -It tcp -Il 0 -If 0 -Ii 0 -Iv 32 -Pn tcp -Ps 0 -Pa 0 -Pf 1 -Po 0 
r -t 0.066097865 -Hs 34 -Hd -2 -Ni 34 -Nx 89.60 -Ny 10.26 -Nz 0.00 -Ne 9.999511 -Nl RTR -Nw --- -Ma 0 -Md 14000000 -Ms ffff0008 -Mt 0 -Is 20.0 -Id -1.0 -It tcp -Il 0 -If 0 -Ii 0 -Iv 32 -Pn tcp -Ps 0 -Pa 0 -Pf 1 -Po 0 
r -t 0.066097865 -Hs 34 -Hd -2 -Ni 34 -Nx 89.60 -Ny 10.26 -Nz 0.00 -Ne 9.999511 -Nl AGT -Nw --- -Ma 0 -Md 14000000 -Ms ffff0008 -Mt 0 -Is 20.0 -Id -1.0 -It tcp -Il 0 -If 0 -Ii 0 -Iv 32 -Pn tcp -Ps 0 -Pa 0 -Pf 1 -Po 0 
r -t 0.066097871 -Hs 31 -Hd -2 -Ni 31 -Nx 85.40 -Ny 27.04 -Nz 0.00 -Ne 9.999511 -Nl RTR -Nw --- -Ma 0 -Md 14000000 -Ms ffff0008 -Mt 0 -Is 20.0 -Id -1.0 -It tcp -Il 0 -If 0 -Ii 0 -Iv 32 -Pn tcp -Ps 0 -Pa 0 -Pf 1 -Po 0 
r -t 0.066097871 -Hs 31 -Hd -2 -Ni 31 -Nx 85.40 -Ny 27.04 -Nz 0.00 -Ne 9.999511 -Nl AGT -Nw --- -Ma 0 -Md 14000000 -Ms ffff0008 -Mt 0 -Is 20.0 -Id -1.0 -It tcp -Il 0 -If 0 -Ii 0 -Iv 32 -Pn tcp -Ps 0 -Pa 0 -Pf 1 -Po 0 
r -t 0.066097880 -Hs 8 -Hd -2 -Ni 8 -Nx 81.34 -Ny 24.82 -Nz 0.00 -Ne 9.999511 -Nl RTR -Nw --- -Ma 0 -Md 14000000 -Ms ffff0008 -Mt 0 -Is 20.0 -Id -1.0 -It tcp -Il 0 -If 0 -Ii 0 -Iv 32 -Pn tcp -Ps 0 -Pa 0 -Pf 1 -Po 0 
r -t 0.066097880 -Hs 8 -Hd -2 -Ni 8 -Nx 81.34 -Ny 24.82 -Nz 0.00 -Ne 9.999511 -Nl AGT -Nw --- -Ma 0 -Md 14000000 -Ms ffff0008 -Mt 0 -Is 20.0 -Id -1.0 -It tcp -Il 0 -If 0 -Ii 0 -Iv 32 -Pn tcp -Ps 0 -Pa 0 -Pf 1 -Po 0 
r -t 0.066097888 -Hs 23 -Hd -2 -Ni 23 -Nx 88.92 -Ny 2.62 -Nz 0.00 -Ne 9.999511 -Nl RTR -Nw --- -Ma 0 -Md 14000000 -Ms ffff0008 -Mt 0 -Is 20.0 -Id -1.0 -It tcp -Il 0 -If 0 -Ii 0 -Iv 32 -Pn tcp -Ps 0 -Pa 0 -Pf 1 -Po 0 
r -t 0.066097888 -Hs 23 -Hd -2 -Ni 23 -Nx 88.92 -Ny 2.62 -Nz 0.00 -Ne 9.999511 -Nl AGT -Nw --- -Ma 0 -Md 14000000 -Ms ffff0008 -Mt 0 -Is 20.0 -Id -1.0 -It tcp -Il 0 -If 0 -Ii 0 -Iv 32 -Pn tcp -Ps 0 -Pa 0 -Pf 1 -Po 0 
r -t 0.066097890 -Hs 4 -Hd -2 -Ni 4 -Nx 89.60 -Ny 37.07 -Nz 0.00 -Ne 9.999511 -Nl RTR -Nw --- -Ma 0 -Md 14000000 -Ms ffff0008 -Mt 0 -Is 20.0 -Id -1.0 -It tcp -Il 0 -If 0 -Ii 0 -Iv 32 -Pn tcp -Ps 0 -Pa 0 -Pf 1 -Po 0 
r -t 0.066097890 -Hs 4 -Hd -2 -Ni 4 -Nx 89.60 -Ny 37.07 -Nz 0.00 -Ne 9.999511 -Nl AGT -Nw --- -Ma 0 -Md 14000000 -Ms ffff0008 -Mt 0 -Is 20.0 -Id -1.0 -It tcp -Il 0 -If 0 -Ii 0 -Iv 32 -Pn tcp -Ps 0 -Pa 0 -Pf 1 -Po 0 
r -t 0.066097897 -Hs 1 -Hd -2 -Ni 1 -Nx 77.02 -Ny 27.48 -Nz 0.00 -Ne 9.999511 -Nl RTR -Nw --- -Ma 0 -Md 14000000 -Ms ffff0008 -Mt 0 -Is 20.0 -Id -1.0 -It tcp -Il 0 -If 0 -Ii 0 -Iv 32 -Pn tcp -Ps 0 -Pa 0 -Pf 1 -Po 0 
r -t 0.066097897 -Hs 1 -Hd -2 -Ni 1 -Nx 77.02 -Ny 27.48 -Nz 0.00 -Ne 9.999511 -Nl AGT -Nw --- -Ma 0 -Md 14000000 -Ms ffff0008 -Mt 0 -Is 20.0 -Id -1.0 -It tcp -Il 0 -If 0 -Ii 0 -Iv 32 -Pn tcp -Ps 0 -Pa 0 -Pf 1 -Po 0 
r -t 0.066097898 -Hs 19 -Hd -2 -Ni 19 -Nx 79.52 -Ny 32.67 -Nz 0.00 -Ne 9.999511 -Nl RTR -Nw --- -Ma 0 -Md 14000000 -Ms ffff0008 -Mt 0 -Is 20.0 -Id -1.0 -It tcp -Il 0 -If 0 -Ii 0 -Iv 32 -Pn tcp -Ps 0 -Pa 0 -Pf 1 -Po 0 
r -t 0.066097898 -Hs 19 -Hd -2 -Ni 19 -Nx 79.52 -Ny 32.67 -Nz 0.00 -Ne 9.999511 -Nl AGT -Nw --- -Ma 0 -Md 14000000 -Ms ffff0008 -Mt 0 -Is 20.0 -Id -1.0 -It tcp -Il 0 -If 0 -Ii 0 -Iv 32 -Pn tcp -Ps 0 -Pa 0 -Pf 1 -Po 0 
r -t 0.066097906 -Hs 22 -Hd -2 -Ni 22 -Nx 80.45 -Ny 1.84 -Nz 0.00 -Ne 9.999511 -Nl RTR -Nw --- -Ma 0 -Md 14000000 -Ms ffff0008 -Mt 0 -Is 20.0 -Id -1.0 -It tcp -Il 0 -If 0 -Ii 0 -Iv 32 -Pn tcp -Ps 0 -Pa 0 -Pf 1 -Po 0 
r -t 0.066097906 -Hs 22 -Hd -2 -Ni 22 -Nx 80.45 -Ny 1.84 -Nz 0.00 -Ne 9.999511 -Nl AGT -Nw --- -Ma 0 -Md 14000000 -Ms ffff0008 -Mt 0 -Is 20.0 -Id -1.0 -It tcp -Il 0 -If 0 -Ii 0 -Iv 32 -Pn tcp -Ps 0 -Pa 0 -Pf 1 -Po 0 
r -t 0.066097915 -Hs 9 -Hd -2 -Ni 9 -Nx 88.87 -Ny 44.98 -Nz 0.00 -Ne 9.999511 -Nl RTR -Nw --- -Ma 0 -Md 14000000 -Ms ffff0008 -Mt 0 -Is 20.0 -Id -1.0 -It tcp -Il 0 -If 0 -Ii 0 -Iv 32 -Pn tcp -Ps 0 -Pa 0 -Pf 1 -Po 0 
r -t 0.066097915 -Hs 9 -Hd -2 -Ni 9 -Nx 88.87 -Ny 44.98 -Nz 0.00 -Ne 9.999511 -Nl AGT -Nw --- -Ma 0 -Md 14000000 -Ms ffff0008 -Mt 0 -Is 20.0 -Id -1.0 -It tcp -Il 0 -If 0 -Ii 0 -Iv 32 -Pn tcp -Ps 0 -Pa 0 -Pf 1 -Po 0 
r -t 0.066097916 -Hs 11 -Hd -2 -Ni 11 -Nx 69.77 -Ny 16.98 -Nz 0.00 -Ne 9.999511 -Nl RTR -Nw --- -Ma 0 -Md 14000000 -Ms ffff0008 -Mt 0 -Is 20.0 -Id -1.0 -It tcp -Il 0 -If 0 -Ii 0 -Iv 32 -Pn tcp -Ps 0 -Pa 0 -Pf 1 -Po 0 
r -t 0.066097916 -Hs 11 -Hd -2 -Ni 11 -Nx 69.77 -Ny 16.98 -Nz 0.00 -Ne 9.999511 -Nl AGT -Nw --- -Ma 0 -Md 14000000 -Ms ffff0008 -Mt 0 -Is 20.0 -Id -1.0 -It tcp -Il 0 -If 0 -Ii 0 -Iv 32 -Pn tcp -Ps 0 -Pa 0 -Pf 1 -Po 0 
r -t 0.066097917 -Hs 25 -Hd -2 -Ni 25 -Nx 76.49 -Ny 0.91 -Nz 0.00 -Ne 9.999511 -Nl RTR -Nw --- -Ma 0 -Md 14000000 -Ms ffff0008 -Mt 0 -Is 20.0 -Id -1.0 -It tcp -Il 0 -If 0 -Ii 0 -Iv 32 -Pn tcp -Ps 0 -Pa 0 -Pf 1 -Po 0 
r -t 0.066097917 -Hs 25 -Hd -2 -Ni 25 -Nx 76.49 -Ny 0.91 -Nz 0.00 -Ne 9.999511 -Nl AGT -Nw --- -Ma 0 -Md 14000000 -Ms ffff0008 -Mt 0 -Is 20.0 -Id -1.0 -It tcp -Il 0 -If 0 -Ii 0 -Iv 32 -Pn tcp -Ps 0 -Pa 0 -Pf 1 -Po 0 
r -t 0.066097922 -Hs 40 -Hd -2 -Ni 40 -Nx 70.09 -Ny 30.61 -Nz 0.00 -Ne 9.999511 -Nl RTR -Nw --- -Ma 0 -Md 14000000 -Ms ffff0008 -Mt 0 -Is 20.0 -Id -1.0 -It tcp -Il 0 -If 0 -Ii 0 -Iv 32 -Pn tcp -Ps 0 -Pa 0 -Pf 1 -Po 0 
r -t 0.066097922 -Hs 40 -Hd -2 -Ni 40 -Nx 70.09 -Ny 30.61 -Nz 0.00 -Ne 9.999511 -Nl AGT -Nw --- -Ma 0 -Md 14000000 -Ms ffff0008 -Mt 0 -Is 20.0 -Id -1.0 -It tcp -Il 0 -If 0 -Ii 0 -Iv 32 -Pn tcp -Ps 0 -Pa 0 -Pf 1 -Po 0 
r -t 0.066097933 -Hs 21 -Hd -2 -Ni 21 -Nx 70.57 -Ny 38.23 -Nz 0.00 -Ne 9.999511 -Nl RTR -Nw --- -Ma 0 -Md 14000000 -Ms ffff0008 -Mt 0 -Is 20.0 -Id -1.0 -It tcp -Il 0 -If 0 -Ii 0 -Iv 32 -Pn tcp -Ps 0 -Pa 0 -Pf 1 -Po 0 
r -t 0.066097933 -Hs 21 -Hd -2 -Ni 21 -Nx 70.57 -Ny 38.23 -Nz 0.00 -Ne 9.999511 -Nl AGT -Nw --- -Ma 0 -Md 14000000 -Ms ffff0008 -Mt 0 -Is 20.0 -Id -1.0 -It tcp -Il 0 -If 0 -Ii 0 -Iv 32 -Pn tcp -Ps 0 -Pa 0 -Pf 1 -Po 0 
r -t 0.066097934 -Hs 24 -Hd -2 -Ni 24 -Nx 66.14 -Ny 9.03 -Nz 0.00 -Ne 9.999511 -Nl RTR -Nw --- -Ma 0 -Md 14000000 -Ms ffff0008 -Mt 0 -Is 20.0 -Id -1.0 -It tcp -Il 0 -If 0 -Ii 0 -Iv 32 -Pn tcp -Ps 0 -Pa 0 -Pf 1 -Po 0 
r -t 0.066097934 -Hs 24 -Hd -2 -Ni 24 -Nx 66.14 -Ny 9.03 -Nz 0.00 -Ne 9.999511 -Nl AGT -Nw --- -Ma 0 -Md 14000000 -Ms ffff0008 -Mt 0 -Is 20.0 -Id -1.0 -It tcp -Il 0 -If 0 -Ii 0 -Iv 32 -Pn tcp -Ps 0 -Pa 0 -Pf 1 -Po 0 
r -t 0.066097960 -Hs 14 -Hd -2 -Ni 14 -Nx 57.74 -Ny 29.77 -Nz 0.00 -Ne 9.999511 -Nl RTR -Nw --- -Ma 0 -Md 14000000 -Ms ffff0008 -Mt 0 -Is 20.0 -Id -1.0 -It tcp -Il 0 -If 0 -Ii 0 -Iv 32 -Pn tcp -Ps 0 -Pa 0 -Pf 1 -Po 0 
r -t 0.066097960 -Hs 14 -Hd -2 -Ni 14 -Nx 57.74 -Ny 29.77 -Nz 0.00 -Ne 9.999511 -Nl AGT -Nw --- -Ma 0 -Md 14000000 -Ms ffff0008 -Mt 0 -Is 20.0 -Id -1.0 -It tcp -Il 0 -If 0 -Ii 0 -Iv 32 -Pn tcp -Ps 0 -Pa 0 -Pf 1 -Po 0 
r -t 0.066097963 -Hs 32 -Hd -2 -Ni 32 -Nx 81.60 -Ny 57.49 -Nz 0.00 -Ne 9.999511 -Nl RTR -Nw --- -Ma 0 -Md 14000000 -Ms ffff0008 -Mt 0 -Is 20.0 -Id -1.0 -It tcp -Il 0 -If 0 -Ii 0 -Iv 32 -Pn tcp -Ps 0 -Pa 0 -Pf 1 -Po 0 
r -t 0.066097963 -Hs 32 -Hd -2 -Ni 32 -Nx 81.60 -Ny 57.49 -Nz 0.00 -Ne 9.999511 -Nl AGT -Nw --- -Ma 0 -Md 14000000 -Ms ffff0008 -Mt 0 -Is 20.0 -Id -1.0 -It tcp -Il 0 -If 0 -Ii 0 -Iv 32 -Pn tcp -Ps 0 -Pa 0 -Pf 1 -Po 0 
r -t 0.066097995 -Hs 3 -Hd -2 -Ni 3 -Nx 62.27 -Ny 56.46 -Nz 0.00 -Ne 9.999511 -Nl RTR -Nw --- -Ma 0 -Md 14000000 -Ms ffff0008 -Mt 0 -Is 20.0 -Id -1.0 -It tcp -Il 0 -If 0 -Ii 0 -Iv 32 -Pn tcp -Ps 0 -Pa 0 -Pf 1 -Po 0 
r -t 0.066097995 -Hs 3 -Hd -2 -Ni 3 -Nx 62.27 -Ny 56.46 -Nz 0.00 -Ne 9.999511 -Nl AGT -Nw --- -Ma 0 -Md 14000000 -Ms ffff0008 -Mt 0 -Is 20.0 -Id -1.0 -It tcp -Il 0 -If 0 -Ii 0 -Iv 32 -Pn tcp -Ps 0 -Pa 0 -Pf 1 -Po 0 
r -t 0.066097999 -Hs 38 -Hd -2 -Ni 38 -Nx 66.23 -Ny 61.51 -Nz 0.00 -Ne 9.999511 -Nl RTR -Nw --- -Ma 0 -Md 14000000 -Ms ffff0008 -Mt 0 -Is 20.0 -Id -1.0 -It tcp -Il 0 -If 0 -Ii 0 -Iv 32 -Pn tcp -Ps 0 -Pa 0 -Pf 1 -Po 0 
r -t 0.066097999 -Hs 38 -Hd -2 -Ni 38 -Nx 66.23 -Ny 61.51 -Nz 0.00 -Ne 9.999511 -Nl AGT -Nw --- -Ma 0 -Md 14000000 -Ms ffff0008 -Mt 0 -Is 20.0 -Id -1.0 -It tcp -Il 0 -If 0 -Ii 0 -Iv 32 -Pn tcp -Ps 0 -Pa 0 -Pf 1 -Po 0 
r -t 0.066098002 -Hs 30 -Hd -2 -Ni 30 -Nx 46.69 -Ny 2.77 -Nz 0.00 -Ne 9.999511 -Nl RTR -Nw --- -Ma 0 -Md 14000000 -Ms ffff0008 -Mt 0 -Is 20.0 -Id -1.0 -It tcp -Il 0 -If 0 -Ii 0 -Iv 32 -Pn tcp -Ps 0 -Pa 0 -Pf 1 -Po 0 
r -t 0.066098002 -Hs 30 -Hd -2 -Ni 30 -Nx 46.69 -Ny 2.77 -Nz 0.00 -Ne 9.999511 -Nl AGT -Nw --- -Ma 0 -Md 14000000 -Ms ffff0008 -Mt 0 -Is 20.0 -Id -1.0 -It tcp -Il 0 -If 0 -Ii 0 -Iv 32 -Pn tcp -Ps 0 -Pa 0 -Pf 1 -Po 0 
r -t 0.066098009 -Hs 37 -Hd -2 -Ni 37 -Nx 54.45 -Ny 54.37 -Nz 0.00 -Ne 9.999511 -Nl RTR -Nw --- -Ma 0 -Md 14000000 -Ms ffff0008 -Mt 0 -Is 20.0 -Id -1.0 -It tcp -Il 0 -If 0 -Ii 0 -Iv 32 -Pn tcp -Ps 0 -Pa 0 -Pf 1 -Po 0 
r -t 0.066098009 -Hs 37 -Hd -2 -Ni 37 -Nx 54.45 -Ny 54.37 -Nz 0.00 -Ne 9.999511 -Nl AGT -Nw --- -Ma 0 -Md 14000000 -Ms ffff0008 -Mt 0 -Is 20.0 -Id -1.0 -It tcp -Il 0 -If 0 -Ii 0 -Iv 32 -Pn tcp -Ps 0 -Pa 0 -Pf 1 -Po 0 
r -t 0.066098012 -Hs 0 -Hd -2 -Ni 0 -Nx 50.00 -Ny 50.00 -Nz 0.00 -Ne 99.999960 -Nl RTR -Nw --- -Ma 0 -Md 14000000 -Ms ffff0008 -Mt 0 -Is 20.0 -Id -1.0 -It tcp -Il 0 -If 0 -Ii 0 -Iv 32 -Pn tcp -Ps 0 -Pa 0 -Pf 1 -Po 0 
r -t 0.066098012 -Hs 0 -Hd -2 -Ni 0 -Nx 50.00 -Ny 50.00 -Nz 0.00 -Ne 99.999960 -Nl AGT -Nw --- -Ma 0 -Md 14000000 -Ms ffff0008 -Mt 0 -Is 20.0 -Id -1.0 -It tcp -Il 0 -If 0 -Ii 0 -Iv 32 -Pn tcp -Ps 0 -Pa 0 -Pf 1 -Po 0 
r -t 0.066098013 -Hs 26 -Hd -2 -Ni 26 -Nx 53.30 -Ny 55.16 -Nz 0.00 -Ne 9.999511 -Nl RTR -Nw --- -Ma 0 -Md 14000000 -Ms ffff0008 -Mt 0 -Is 20.0 -Id -1.0 -It tcp -Il 0 -If 0 -Ii 0 -Iv 32 -Pn tcp -Ps 0 -Pa 0 -Pf 1 -Po 0 
r -t 0.066098013 -Hs 26 -Hd -2 -Ni 26 -Nx 53.30 -Ny 55.16 -Nz 0.00 -Ne 9.999511 -Nl AGT -Nw --- -Ma 0 -Md 14000000 -Ms ffff0008 -Mt 0 -Is 20.0 -Id -1.0 -It tcp -Il 0 -If 0 -Ii 0 -Iv 32 -Pn tcp -Ps 0 -Pa 0 -Pf 1 -Po 0 
r -t 0.066098033 -Hs 13 -Hd -2 -Ni 13 -Nx 34.90 -Ny 25.09 -Nz 0.00 -Ne 9.999511 -Nl RTR -Nw --- -Ma 0 -Md 14000000 -Ms ffff0008 -Mt 0 -Is 20.0 -Id -1.0 -It tcp -Il 0 -If 0 -Ii 0 -Iv 32 -Pn tcp -Ps 0 -Pa 0 -Pf 1 -Po 0 
r -t 0.066098033 -Hs 13 -Hd -2 -Ni 13 -Nx 34.90 -Ny 25.09 -Nz 0.00 -Ne 9.999511 -Nl AGT -Nw --- -Ma 0 -Md 14000000 -Ms ffff0008 -Mt 0 -Is 20.0 -Id -1.0 -It tcp -Il 0 -If 0 -Ii 0 -Iv 32 -Pn tcp -Ps 0 -Pa 0 -Pf 1 -Po 0 
r -t 0.066098035 -Hs 33 -Hd -2 -Ni 33 -Nx 36.13 -Ny 3.36 -Nz 0.00 -Ne 9.999511 -Nl RTR -Nw --- -Ma 0 -Md 14000000 -Ms ffff0008 -Mt 0 -Is 20.0 -Id -1.0 -It tcp -Il 0 -If 0 -Ii 0 -Iv 32 -Pn tcp -Ps 0 -Pa 0 -Pf 1 -Po 0 
r -t 0.066098035 -Hs 33 -Hd -2 -Ni 33 -Nx 36.13 -Ny 3.36 -Nz 0.00 -Ne 9.999511 -Nl AGT -Nw --- -Ma 0 -Md 14000000 -Ms ffff0008 -Mt 0 -Is 20.0 -Id -1.0 -It tcp -Il 0 -If 0 -Ii 0 -Iv 32 -Pn tcp -Ps 0 -Pa 0 -Pf 1 -Po 0 
r -t 0.066098037 -Hs 17 -Hd -2 -Ni 17 -Nx 82.22 -Ny 81.06 -Nz 0.00 -Ne 9.999511 -Nl RTR -Nw --- -Ma 0 -Md 14000000 -Ms ffff0008 -Mt 0 -Is 20.0 -Id -1.0 -It tcp -Il 0 -If 0 -Ii 0 -Iv 32 -Pn tcp -Ps 0 -Pa 0 -Pf 1 -Po 0 
r -t 0.066098037 -Hs 17 -Hd -2 -Ni 17 -Nx 82.22 -Ny 81.06 -Nz 0.00 -Ne 9.999511 -Nl AGT -Nw --- -Ma 0 -Md 14000000 -Ms ffff0008 -Mt 0 -Is 20.0 -Id -1.0 -It tcp -Il 0 -If 0 -Ii 0 -Iv 32 -Pn tcp -Ps 0 -Pa 0 -Pf 1 -Po 0 
r -t 0.066098057 -Hs 39 -Hd -2 -Ni 39 -Nx 61.74 -Ny 79.24 -Nz 0.00 -Ne 9.999511 -Nl RTR -Nw --- -Ma 0 -Md 14000000 -Ms ffff0008 -Mt 0 -Is 20.0 -Id -1.0 -It tcp -Il 0 -If 0 -Ii 0 -Iv 32 -Pn tcp -Ps 0 -Pa 0 -Pf 1 -Po 0 
r -t 0.066098057 -Hs 39 -Hd -2 -Ni 39 -Nx 61.74 -Ny 79.24 -Nz 0.00 -Ne 9.999511 -Nl AGT -Nw --- -Ma 0 -Md 14000000 -Ms ffff0008 -Mt 0 -Is 20.0 -Id -1.0 -It tcp -Il 0 -If 0 -Ii 0 -Iv 32 -Pn tcp -Ps 0 -Pa 0 -Pf 1 -Po 0 
r -t 0.066098060 -Hs 5 -Hd -2 -Ni 5 -Nx 94.98 -Ny 89.61 -Nz 0.00 -Ne 9.999511 -Nl RTR -Nw --- -Ma 0 -Md 14000000 -Ms ffff0008 -Mt 0 -Is 20.0 -Id -1.0 -It tcp -Il 0 -If 0 -Ii 0 -Iv 32 -Pn tcp -Ps 0 -Pa 0 -Pf 1 -Po 0 
r -t 0.066098060 -Hs 5 -Hd -2 -Ni 5 -Nx 94.98 -Ny 89.61 -Nz 0.00 -Ne 9.999511 -Nl AGT -Nw --- -Ma 0 -Md 14000000 -Ms ffff0008 -Mt 0 -Is 20.0 -Id -1.0 -It tcp -Il 0 -If 0 -Ii 0 -Iv 32 -Pn tcp -Ps 0 -Pa 0 -Pf 1 -Po 0 
r -t 0.066098068 -Hs 12 -Hd -2 -Ni 12 -Nx 49.81 -Ny 74.94 -Nz 0.00 -Ne 9.999511 -Nl RTR -Nw --- -Ma 0 -Md 14000000 -Ms ffff0008 -Mt 0 -Is 20.0 -Id -1.0 -It tcp -Il 0 -If 0 -Ii 0 -Iv 32 -Pn tcp -Ps 0 -Pa 0 -Pf 1 -Po 0 
r -t 0.066098068 -Hs 12 -Hd -2 -Ni 12 -Nx 49.81 -Ny 74.94 -Nz 0.00 -Ne 9.999511 -Nl AGT -Nw --- -Ma 0 -Md 14000000 -Ms ffff0008 -Mt 0 -Is 20.0 -Id -1.0 -It tcp -Il 0 -If 0 -Ii 0 -Iv 32 -Pn tcp -Ps 0 -Pa 0 -Pf 1 -Po 0 
r -t 0.066098072 -Hs 16 -Hd -2 -Ni 16 -Nx 24.44 -Ny 34.60 -Nz 0.00 -Ne 9.999511 -Nl RTR -Nw --- -Ma 0 -Md 14000000 -Ms ffff0008 -Mt 0 -Is 20.0 -Id -1.0 -It tcp -Il 0 -If 0 -Ii 0 -Iv 32 -Pn tcp -Ps 0 -Pa 0 -Pf 1 -Po 0 
r -t 0.066098072 -Hs 16 -Hd -2 -Ni 16 -Nx 24.44 -Ny 34.60 -Nz 0.00 -Ne 9.999511 -Nl AGT -Nw --- -Ma 0 -Md 14000000 -Ms ffff0008 -Mt 0 -Is 20.0 -Id -1.0 -It tcp -Il 0 -If 0 -Ii 0 -Iv 32 -Pn tcp -Ps 0 -Pa 0 -Pf 1 -Po 0 
r -t 0.066098083 -Hs 27 -Hd -2 -Ni 27 -Nx 51.57 -Ny 81.88 -Nz 0.00 -Ne 9.999511 -Nl RTR -Nw --- -Ma 0 -Md 14000000 -Ms ffff0008 -Mt 0 -Is 20.0 -Id -1.0 -It tcp -Il 0 -If 0 -Ii 0 -Iv 32 -Pn tcp -Ps 0 -Pa 0 -Pf 1 -Po 0 
r -t 0.066098083 -Hs 27 -Hd -2 -Ni 27 -Nx 51.57 -Ny 81.88 -Nz 0.00 -Ne 9.999511 -Nl AGT -Nw --- -Ma 0 -Md 14000000 -Ms ffff0008 -Mt 0 -Is 20.0 -Id -1.0 -It tcp -Il 0 -If 0 -Ii 0 -Iv 32 -Pn tcp -Ps 0 -Pa 0 -Pf 1 -Po 0 
r -t 0.066098083 -Hs 15 -Hd -2 -Ni 15 -Nx 29.03 -Ny 56.36 -Nz 0.00 -Ne 9.999511 -Nl RTR -Nw --- -Ma 0 -Md 14000000 -Ms ffff0008 -Mt 0 -Is 20.0 -Id -1.0 -It tcp -Il 0 -If 0 -Ii 0 -Iv 32 -Pn tcp -Ps 0 -Pa 0 -Pf 1 -Po 0 
r -t 0.066098083 -Hs 15 -Hd -2 -Ni 15 -Nx 29.03 -Ny 56.36 -Nz 0.00 -Ne 9.999511 -Nl AGT -Nw --- -Ma 0 -Md 14000000 -Ms ffff0008 -Mt 0 -Is 20.0 -Id -1.0 -It tcp -Il 0 -If 0 -Ii 0 -Iv 32 -Pn tcp -Ps 0 -Pa 0 -Pf 1 -Po 0 
r -t 0.066098093 -Hs 36 -Hd -2 -Ni 36 -Nx 59.35 -Ny 90.17 -Nz 0.00 -Ne 9.999511 -Nl RTR -Nw --- -Ma 0 -Md 14000000 -Ms ffff0008 -Mt 0 -Is 20.0 -Id -1.0 -It tcp -Il 0 -If 0 -Ii 0 -Iv 32 -Pn tcp -Ps 0 -Pa 0 -Pf 1 -Po 0 
r -t 0.066098093 -Hs 36 -Hd -2 -Ni 36 -Nx 59.35 -Ny 90.17 -Nz 0.00 -Ne 9.999511 -Nl AGT -Nw --- -Ma 0 -Md 14000000 -Ms ffff0008 -Mt 0 -Is 20.0 -Id -1.0 -It tcp -Il 0 -If 0 -Ii 0 -Iv 32 -Pn tcp -Ps 0 -Pa 0 -Pf 1 -Po 0 
r -t 0.066098096 -Hs 28 -Hd -2 -Ni 28 -Nx 23.97 -Ny 54.86 -Nz 0.00 -Ne 9.999511 -Nl RTR -Nw --- -Ma 0 -Md 14000000 -Ms ffff0008 -Mt 0 -Is 20.0 -Id -1.0 -It tcp -Il 0 -If 0 -Ii 0 -Iv 32 -Pn tcp -Ps 0 -Pa 0 -Pf 1 -Po 0 
r -t 0.066098096 -Hs 28 -Hd -2 -Ni 28 -Nx 23.97 -Ny 54.86 -Nz 0.00 -Ne 9.999511 -Nl AGT -Nw --- -Ma 0 -Md 14000000 -Ms ffff0008 -Mt 0 -Is 20.0 -Id -1.0 -It tcp -Il 0 -If 0 -Ii 0 -Iv 32 -Pn tcp -Ps 0 -Pa 0 -Pf 1 -Po 0 
r -t 0.066098104 -Hs 10 -Hd -2 -Ni 10 -Nx 32.65 -Ny 72.84 -Nz 0.00 -Ne 9.999511 -Nl RTR -Nw --- -Ma 0 -Md 14000000 -Ms ffff0008 -Mt 0 -Is 20.0 -Id -1.0 -It tcp -Il 0 -If 0 -Ii 0 -Iv 32 -Pn tcp -Ps 0 -Pa 0 -Pf 1 -Po 0 
r -t 0.066098104 -Hs 10 -Hd -2 -Ni 10 -Nx 32.65 -Ny 72.84 -Nz 0.00 -Ne 9.999511 -Nl AGT -Nw --- -Ma 0 -Md 14000000 -Ms ffff0008 -Mt 0 -Is 20.0 -Id -1.0 -It tcp -Il 0 -If 0 -Ii 0 -Iv 32 -Pn tcp -Ps 0 -Pa 0 -Pf 1 -Po 0 
r -t 0.066098108 -Hs 35 -Hd -2 -Ni 35 -Nx 30.60 -Ny 72.19 -Nz 0.00 -Ne 9.999511 -Nl RTR -Nw --- -Ma 0 -Md 14000000 -Ms ffff0008 -Mt 0 -Is 20.0 -Id -1.0 -It tcp -Il 0 -If 0 -Ii 0 -Iv 32 -Pn tcp -Ps 0 -Pa 0 -Pf 1 -Po 0 
r -t 0.066098108 -Hs 35 -Hd -2 -Ni 35 -Nx 30.60 -Ny 72.19 -Nz 0.00 -Ne 9.999511 -Nl AGT -Nw --- -Ma 0 -Md 14000000 -Ms ffff0008 -Mt 0 -Is 20.0 -Id -1.0 -It tcp -Il 0 -If 0 -Ii 0 -Iv 32 -Pn tcp -Ps 0 -Pa 0 -Pf 1 -Po 0 
r -t 0.066098125 -Hs 29 -Hd -2 -Ni 29 -Nx 18.69 -Ny 63.88 -Nz 0.00 -Ne 9.999511 -Nl RTR -Nw --- -Ma 0 -Md 14000000 -Ms ffff0008 -Mt 0 -Is 20.0 -Id -1.0 -It tcp -Il 0 -If 0 -Ii 0 -Iv 32 -Pn tcp -Ps 0 -Pa 0 -Pf 1 -Po 0 
r -t 0.066098125 -Hs 29 -Hd -2 -Ni 29 -Nx 18.69 -Ny 63.88 -Nz 0.00 -Ne 9.999511 -Nl AGT -Nw --- -Ma 0 -Md 14000000 -Ms ffff0008 -Mt 0 -Is 20.0 -Id -1.0 -It tcp -Il 0 -If 0 -Ii 0 -Iv 32 -Pn tcp -Ps 0 -Pa 0 -Pf 1 -Po 0 
r -t 0.066098134 -Hs 18 -Hd -2 -Ni 18 -Nx 28.71 -Ny 82.15 -Nz 0.00 -Ne 9.999511 -Nl RTR -Nw --- -Ma 0 -Md 14000000 -Ms ffff0008 -Mt 0 -Is 20.0 -Id -1.0 -It tcp -Il 0 -If 0 -Ii 0 -Iv 32 -Pn tcp -Ps 0 -Pa 0 -Pf 1 -Po 0 
r -t 0.066098134 -Hs 18 -Hd -2 -Ni 18 -Nx 28.71 -Ny 82.15 -Nz 0.00 -Ne 9.999511 -Nl AGT -Nw --- -Ma 0 -Md 14000000 -Ms ffff0008 -Mt 0 -Is 20.0 -Id -1.0 -It tcp -Il 0 -If 0 -Ii 0 -Iv 32 -Pn tcp -Ps 0 -Pa 0 -Pf 1 -Po 0 
r -t 0.066098135 -Hs 7 -Hd -2 -Ni 7 -Nx 41.22 -Ny 93.65 -Nz 0.00 -Ne 9.999511 -Nl RTR -Nw --- -Ma 0 -Md 14000000 -Ms ffff0008 -Mt 0 -Is 20.0 -Id -1.0 -It tcp -Il 0 -If 0 -Ii 0 -Iv 32 -Pn tcp -Ps 0 -Pa 0 -Pf 1 -Po 0 
r -t 0.066098135 -Hs 7 -Hd -2 -Ni 7 -Nx 41.22 -Ny 93.65 -Nz 0.00 -Ne 9.999511 -Nl AGT -Nw --- -Ma 0 -Md 14000000 -Ms ffff0008 -Mt 0 -Is 20.0 -Id -1.0 -It tcp -Il 0 -If 0 -Ii 0 -Iv 32 -Pn tcp -Ps 0 -Pa 0 -Pf 1 -Po 0 
r -t 0.066098151 -Hs 2 -Hd -2 -Ni 2 -Nx 22.66 -Ny 82.84 -Nz 0.00 -Ne 9.999511 -Nl RTR -Nw --- -Ma 0 -Md 14000000 -Ms ffff0008 -Mt 0 -Is 20.0 -Id -1.0 -It tcp -Il 0 -If 0 -Ii 0 -Iv 32 -Pn tcp -Ps 0 -Pa 0 -Pf 1 -Po 0 
r -t 0.066098151 -Hs 2 -Hd -2 -Ni 2 -Nx 22.66 -Ny 82.84 -Nz 0.00 -Ne 9.999511 -Nl AGT -Nw --- -Ma 0 -Md 14000000 -Ms ffff0008 -Mt 0 -Is 20.0 -Id -1.0 -It tcp -Il 0 -If 0 -Ii 0 -Iv 32 -Pn tcp -Ps 0 -Pa 0 -Pf 1 -Po 0 
r -t 0.066098169 -Hs 6 -Hd -2 -Ni 6 -Nx 18.32 -Ny 85.93 -Nz 0.00 -Ne 9.999511 -Nl RTR -Nw --- -Ma 0 -Md 14000000 -Ms ffff0008 -Mt 0 -Is 20.0 -Id -1.0 -It tcp -Il 0 -If 0 -Ii 0 -Iv 32 -Pn tcp -Ps 0 -Pa 0 -Pf 1 -Po 0 
r -t 0.066098169 -Hs 6 -Hd -2 -Ni 6 -Nx 18.32 -Ny 85.93 -Nz 0.00 -Ne 9.999511 -Nl AGT -Nw --- -Ma 0 -Md 14000000 -Ms ffff0008 -Mt 0 -Is 20.0 -Id -1.0 -It tcp -Il 0 -If 0 -Ii 0 -Iv 32 -Pn tcp -Ps 0 -Pa 0 -Pf 1 -Po 0 
s -t 0.110295641 -Hs 40 -Hd -2 -Ni 40 -Nx 70.09 -Ny 30.61 -Nz 0.00 -Ne 9.998861 -Nl AGT -Nw --- -Ma 0 -Md 28000000 -Ms 0 -Mt 0 -Is 40.0 -Id -1.0 -It tcp -Il 0 -If 0 -Ii 1 -Iv 32 -Pn tcp -Ps 0 -Pa 0 -Pf 0 -Po 0 
r -t 0.110295641 -Hs 40 -Hd -2 -Ni 40 -Nx 70.09 -Ny 30.61 -Nz 0.00 -Ne 9.998861 -Nl RTR -Nw --- -Ma 0 -Md 28000000 -Ms 0 -Mt 0 -Is 40.0 -Id -1.0 -It tcp -Il 0 -If 0 -Ii 1 -Iv 32 -Pn tcp -Ps 0 -Pa 0 -Pf 0 -Po 0 
s -t 0.110295641 -Hs 40 -Hd -2 -Ni 40 -Nx 70.09 -Ny 30.61 -Nz 0.00 -Ne 9.998861 -Nl RTR -Nw --- -Ma 0 -Md 28000000 -Ms 0 -Mt 0 -Is 40.0 -Id -1.0 -It tcp -Il 0 -If 0 -Ii 1 -Iv 32 -Pn tcp -Ps 0 -Pa 0 -Pf 0 -Po 0 
s -t 0.110320641 -Hs 40 -Hd -2 -Ni 40 -Nx 70.09 -Ny 30.61 -Nz 0.00 -Ne 9.998861 -Nl MAC -Nw --- -Ma 0 -Md 28000000 -Ms ffff0008 -Mt 0 -Is 40.0 -Id -1.0 -It tcp -Il 20 -If 0 -Ii 1 -Iv 32 -Pn tcp -Ps 0 -Pa 0 -Pf 0 -Po 0 
N -t 0.110321 -n 1 -e 9.998859
N -t 0.110321 -n 21 -e 9.998859
N -t 0.110321 -n 19 -e 9.998859
N -t 0.110321 -n 14 -e 9.998859
N -t 0.110321 -n 8 -e 9.998859
N -t 0.110321 -n 11 -e 9.998859
N -t 0.110321 -n 31 -e 9.998859
N -t 0.110321 -n 4 -e 9.998859
N -t 0.110321 -n 24 -e 9.998859
N -t 0.110321 -n 9 -e 9.998859
N -t 0.110321 -n 3 -e 9.998859
N -t 0.110321 -n 0 -e 99.999920
N -t 0.110321 -n 34 -e 9.998859
N -t 0.110321 -n 37 -e 9.998859
N -t 0.110321 -n 20 -e 9.998861
N -t 0.110321 -n 32 -e 9.998859
N -t 0.110321 -n 26 -e 9.998859
N -t 0.110321 -n 25 -e 9.998859
N -t 0.110321 -n 22 -e 9.998859
N -t 0.110321 -n 38 -e 9.998859
N -t 0.110321 -n 23 -e 9.998859
N -t 0.110321 -n 13 -e 9.998859
N -t 0.110321 -n 30 -e 9.998859
N -t 0.110321 -n 33 -e 9.998859
N -t 0.110321 -n 16 -e 9.998859
N -t 0.110321 -n 15 -e 9.998859
N -t 0.110321 -n 12 -e 9.998859
N -t 0.110321 -n 39 -e 9.998859
N -t 0.110321 -n 17 -e 9.998859