<<<<<<< HEAD
s -t 0.163965611 -Hs 3 -Hd -2 -Ni 3 -Nx 97.81 -Ny 96.61 -Nz 0.00 -Ne 1000.000000 -Nl AGT -Nw --- -Ma 0 -Md 3000000 -Ms 0 -Mt 0 -Is 3.0 -Id -1.0 -It tcp -Il 0 -If 0 -Ii 0 -Iv 32 -Pn tcp -Ps 0 -Pa 0 -Pf 0 -Po 0 
r -t 0.163965611 -Hs 3 -Hd -2 -Ni 3 -Nx 97.81 -Ny 96.61 -Nz 0.00 -Ne 1000.000000 -Nl RTR -Nw --- -Ma 0 -Md 3000000 -Ms 0 -Mt 0 -Is 3.0 -Id -1.0 -It tcp -Il 0 -If 0 -Ii 0 -Iv 32 -Pn tcp -Ps 0 -Pa 0 -Pf 0 -Po 0 
s -t 0.163965611 -Hs 3 -Hd -2 -Ni 3 -Nx 97.81 -Ny 96.61 -Nz 0.00 -Ne 1000.000000 -Nl RTR -Nw --- -Ma 0 -Md 3000000 -Ms 0 -Mt 0 -Is 3.0 -Id -1.0 -It tcp -Il 0 -If 0 -Ii 0 -Iv 32 -Pn tcp -Ps 0 -Pa 0 -Pf 0 -Po 0 
s -t 0.163990611 -Hs 3 -Hd -2 -Ni 3 -Nx 97.81 -Ny 96.61 -Nz 0.00 -Ne 999.999838 -Nl MAC -Nw --- -Ma 0 -Md 3000000 -Ms ffff0008 -Mt 0 -Is 3.0 -Id -1.0 -It tcp -Il 20 -If 0 -Ii 0 -Iv 32 -Pn tcp -Ps 0 -Pa 0 -Pf 0 -Po 0 
N -t 0.163991 -n 2 -e 999.999836
N -t 0.163991 -n 1 -e 999.999836
N -t 0.163991 -n 4 -e 999.999836
N -t 0.163991 -n 5 -e 999.999836
N -t 0.163991 -n 0 -e 99.999960
r -t 0.164070797 -Hs 2 -Hd -2 -Ni 2 -Nx 95.43 -Ny 40.85 -Nz 0.00 -Ne 999.999836 -Nl MAC -Nw --- -Ma 0 -Md 3000000 -Ms ffff0008 -Mt 0 -Is 3.0 -Id -1.0 -It tcp -Il 0 -If 0 -Ii 0 -Iv 32 -Pn tcp -Ps 0 -Pa 0 -Pf 1 -Po 0 
r -t 0.164070841 -Hs 1 -Hd -2 -Ni 1 -Nx 28.66 -Ny 99.40 -Nz 0.00 -Ne 999.999836 -Nl MAC -Nw --- -Ma 0 -Md 3000000 -Ms ffff0008 -Mt 0 -Is 3.0 -Id -1.0 -It tcp -Il 0 -If 0 -Ii 0 -Iv 32 -Pn tcp -Ps 0 -Pa 0 -Pf 1 -Po 0 
r -t 0.164070936 -Hs 4 -Hd -2 -Ni 4 -Nx 54.02 -Ny 9.52 -Nz 0.00 -Ne 999.999836 -Nl MAC -Nw --- -Ma 0 -Md 3000000 -Ms ffff0008 -Mt 0 -Is 3.0 -Id -1.0 -It tcp -Il 0 -If 0 -Ii 0 -Iv 32 -Pn tcp -Ps 0 -Pa 0 -Pf 1 -Po 0 
r -t 0.164070942 -Hs 5 -Hd -2 -Ni 5 -Nx 2.29 -Ny 69.10 -Nz 0.00 -Ne 999.999836 -Nl MAC -Nw --- -Ma 0 -Md 3000000 -Ms ffff0008 -Mt 0 -Is 3.0 -Id -1.0 -It tcp -Il 0 -If 0 -Ii 0 -Iv 32 -Pn tcp -Ps 0 -Pa 0 -Pf 1 -Po 0 
r -t 0.164070975 -Hs 0 -Hd -2 -Ni 0 -Nx 20.00 -Ny 20.00 -Nz 0.00 -Ne 99.999960 -Nl MAC -Nw --- -Ma 0 -Md 3000000 -Ms ffff0008 -Mt 0 -Is 3.0 -Id -1.0 -It tcp -Il 0 -If 0 -Ii 0 -Iv 32 -Pn tcp -Ps 0 -Pa 0 -Pf 1 -Po 0 
r -t 0.164095797 -Hs 2 -Hd -2 -Ni 2 -Nx 95.43 -Ny 40.85 -Nz 0.00 -Ne 999.999836 -Nl RTR -Nw --- -Ma 0 -Md 3000000 -Ms ffff0008 -Mt 0 -Is 3.0 -Id -1.0 -It tcp -Il 0 -If 0 -Ii 0 -Iv 32 -Pn tcp -Ps 0 -Pa 0 -Pf 1 -Po 0 
r -t 0.164095797 -Hs 2 -Hd -2 -Ni 2 -Nx 95.43 -Ny 40.85 -Nz 0.00 -Ne 999.999836 -Nl AGT -Nw --- -Ma 0 -Md 3000000 -Ms ffff0008 -Mt 0 -Is 3.0 -Id -1.0 -It tcp -Il 0 -If 0 -Ii 0 -Iv 32 -Pn tcp -Ps 0 -Pa 0 -Pf 1 -Po 0 
r -t 0.164095841 -Hs 1 -Hd -2 -Ni 1 -Nx 28.66 -Ny 99.40 -Nz 0.00 -Ne 999.999836 -Nl RTR -Nw --- -Ma 0 -Md 3000000 -Ms ffff0008 -Mt 0 -Is 3.0 -Id -1.0 -It tcp -Il 0 -If 0 -Ii 0 -Iv 32 -Pn tcp -Ps 0 -Pa 0 -Pf 1 -Po 0 
r -t 0.164095841 -Hs 1 -Hd -2 -Ni 1 -Nx 28.66 -Ny 99.40 -Nz 0.00 -Ne 999.999836 -Nl AGT -Nw --- -Ma 0 -Md 3000000 -Ms ffff0008 -Mt 0 -Is 3.0 -Id -1.0 -It tcp -Il 0 -If 0 -Ii 0 -Iv 32 -Pn tcp -Ps 0 -Pa 0 -Pf 1 -Po 0 
r -t 0.164095936 -Hs 4 -Hd -2 -Ni 4 -Nx 54.02 -Ny 9.52 -Nz 0.00 -Ne 999.999836 -Nl RTR -Nw --- -Ma 0 -Md 3000000 -Ms ffff0008 -Mt 0 -Is 3.0 -Id -1.0 -It tcp -Il 0 -If 0 -Ii 0 -Iv 32 -Pn tcp -Ps 0 -Pa 0 -Pf 1 -Po 0 
r -t 0.164095936 -Hs 4 -Hd -2 -Ni 4 -Nx 54.02 -Ny 9.52 -Nz 0.00 -Ne 999.999836 -Nl AGT -Nw --- -Ma 0 -Md 3000000 -Ms ffff0008 -Mt 0 -Is 3.0 -Id -1.0 -It tcp -Il 0 -If 0 -Ii 0 -Iv 32 -Pn tcp -Ps 0 -Pa 0 -Pf 1 -Po 0 
r -t 0.164095942 -Hs 5 -Hd -2 -Ni 5 -Nx 2.29 -Ny 69.10 -Nz 0.00 -Ne 999.999836 -Nl RTR -Nw --- -Ma 0 -Md 3000000 -Ms ffff0008 -Mt 0 -Is 3.0 -Id -1.0 -It tcp -Il 0 -If 0 -Ii 0 -Iv 32 -Pn tcp -Ps 0 -Pa 0 -Pf 1 -Po 0 
r -t 0.164095942 -Hs 5 -Hd -2 -Ni 5 -Nx 2.29 -Ny 69.10 -Nz 0.00 -Ne 999.999836 -Nl AGT -Nw --- -Ma 0 -Md 3000000 -Ms ffff0008 -Mt 0 -Is 3.0 -Id -1.0 -It tcp -Il 0 -If 0 -Ii 0 -Iv 32 -Pn tcp -Ps 0 -Pa 0 -Pf 1 -Po 0 
r -t 0.164095975 -Hs 0 -Hd -2 -Ni 0 -Nx 20.00 -Ny 20.00 -Nz 0.00 -Ne 99.999960 -Nl RTR -Nw --- -Ma 0 -Md 3000000 -Ms ffff0008 -Mt 0 -Is 3.0 -Id -1.0 -It tcp -Il 0 -If 0 -Ii 0 -Iv 32 -Pn tcp -Ps 0 -Pa 0 -Pf 1 -Po 0 
r -t 0.164095975 -Hs 0 -Hd -2 -Ni 0 -Nx 20.00 -Ny 20.00 -Nz 0.00 -Ne 99.999960 -Nl AGT -Nw --- -Ma 0 -Md 3000000 -Ms ffff0008 -Mt 0 -Is 3.0 -Id -1.0 -It tcp -Il 0 -If 0 -Ii 0 -Iv 32 -Pn tcp -Ps 0 -Pa 0 -Pf 1 -Po 0 
s -t 0.546690112 -Hs 5 -Hd -2 -Ni 5 -Nx 2.29 -Ny 69.10 -Nz 0.00 -Ne 999.993986 -Nl AGT -Nw --- -Ma 0 -Md 5000000 -Ms 0 -Mt 0 -Is 5.0 -Id -1.0 -It tcp -Il 0 -If 0 -Ii 1 -Iv 32 -Pn tcp -Ps 0 -Pa 0 -Pf 0 -Po 0 
r -t 0.546690112 -Hs 5 -Hd -2 -Ni 5 -Nx 2.29 -Ny 69.10 -Nz 0.00 -Ne 999.993986 -Nl RTR -Nw --- -Ma 0 -Md 5000000 -Ms 0 -Mt 0 -Is 5.0 -Id -1.0 -It tcp -Il 0 -If 0 -Ii 1 -Iv 32 -Pn tcp -Ps 0 -Pa 0 -Pf 0 -Po 0 
s -t 0.546690112 -Hs 5 -Hd -2 -Ni 5 -Nx 2.29 -Ny 69.10 -Nz 0.00 -Ne 999.993986 -Nl RTR -Nw --- -Ma 0 -Md 5000000 -Ms 0 -Mt 0 -Is 5.0 -Id -1.0 -It tcp -Il 0 -If 0 -Ii 1 -Iv 32 -Pn tcp -Ps 0 -Pa 0 -Pf 0 -Po 0 
s -t 0.546715112 -Hs 5 -Hd -2 -Ni 5 -Nx 2.29 -Ny 69.10 -Nz 0.00 -Ne 999.993823 -Nl MAC -Nw --- -Ma 0 -Md 5000000 -Ms ffff0008 -Mt 0 -Is 5.0 -Id -1.0 -It tcp -Il 20 -If 0 -Ii 1 -Iv 32 -Pn tcp -Ps 0 -Pa 0 -Pf 0 -Po 0 
N -t 0.546715 -n 1 -e 999.993821
N -t 0.546715 -n 0 -e 99.999920
N -t 0.546715 -n 4 -e 999.993821
N -t 0.546715 -n 2 -e 999.993821
N -t 0.546715 -n 3 -e 999.993823
r -t 0.546795245 -Hs 1 -Hd -2 -Ni 1 -Nx 28.66 -Ny 99.40 -Nz 0.00 -Ne 999.993821 -Nl MAC -Nw --- -Ma 0 -Md 5000000 -Ms ffff0008 -Mt 0 -Is 5.0 -Id -1.0 -It tcp -Il 0 -If 0 -Ii 1 -Iv 32 -Pn tcp -Ps 0 -Pa 0 -Pf 1 -Po 0 
r -t 0.546795286 -Hs 0 -Hd -2 -Ni 0 -Nx 20.00 -Ny 20.00 -Nz 0.00 -Ne 99.999920 -Nl MAC -Nw --- -Ma 0 -Md 5000000 -Ms ffff0008 -Mt 0 -Is 5.0 -Id -1.0 -It tcp -Il 0 -If 0 -Ii 1 -Iv 32 -Pn tcp -Ps 0 -Pa 0 -Pf 1 -Po 0 
r -t 0.546795375 -Hs 4 -Hd -2 -Ni 4 -Nx 54.02 -Ny 9.52 -Nz 0.00 -Ne 999.993821 -Nl MAC -Nw --- -Ma 0 -Md 5000000 -Ms ffff0008 -Mt 0 -Is 5.0 -Id -1.0 -It tcp -Il 0 -If 0 -Ii 1 -Iv 32 -Pn tcp -Ps 0 -Pa 0 -Pf 1 -Po 0 
r -t 0.546795436 -Hs 2 -Hd -2 -Ni 2 -Nx 95.43 -Ny 40.85 -Nz 0.00 -Ne 999.993821 -Nl MAC -Nw --- -Ma 0 -Md 5000000 -Ms ffff0008 -Mt 0 -Is 5.0 -Id -1.0 -It tcp -Il 0 -If 0 -Ii 1 -Iv 32 -Pn tcp -Ps 0 -Pa 0 -Pf 1 -Po 0 
r -t 0.546795443 -Hs 3 -Hd -2 -Ni 3 -Nx 97.81 -Ny 96.61 -Nz 0.00 -Ne 999.993823 -Nl MAC -Nw --- -Ma 0 -Md 5000000 -Ms ffff0008 -Mt 0 -Is 5.0 -Id -1.0 -It tcp -Il 0 -If 0 -Ii 1 -Iv 32 -Pn tcp -Ps 0 -Pa 0 -Pf 1 -Po 0 
r -t 0.546820245 -Hs 1 -Hd -2 -Ni 1 -Nx 28.66 -Ny 99.40 -Nz 0.00 -Ne 999.993821 -Nl RTR -Nw --- -Ma 0 -Md 5000000 -Ms ffff0008 -Mt 0 -Is 5.0 -Id -1.0 -It tcp -Il 0 -If 0 -Ii 1 -Iv 32 -Pn tcp -Ps 0 -Pa 0 -Pf 1 -Po 0 
r -t 0.546820245 -Hs 1 -Hd -2 -Ni 1 -Nx 28.66 -Ny 99.40 -Nz 0.00 -Ne 999.993821 -Nl AGT -Nw --- -Ma 0 -Md 5000000 -Ms ffff0008 -Mt 0 -Is 5.0 -Id -1.0 -It tcp -Il 0 -If 0 -Ii 1 -Iv 32 -Pn tcp -Ps 0 -Pa 0 -Pf 1 -Po 0 
r -t 0.546820286 -Hs 0 -Hd -2 -Ni 0 -Nx 20.00 -Ny 20.00 -Nz 0.00 -Ne 99.999920 -Nl RTR -Nw --- -Ma 0 -Md 5000000 -Ms ffff0008 -Mt 0 -Is 5.0 -Id -1.0 -It tcp -Il 0 -If 0 -Ii 1 -Iv 32 -Pn tcp -Ps 0 -Pa 0 -Pf 1 -Po 0 
r -t 0.546820286 -Hs 0 -Hd -2 -Ni 0 -Nx 20.00 -Ny 20.00 -Nz 0.00 -Ne 99.999920 -Nl AGT -Nw --- -Ma 0 -Md 5000000 -Ms ffff0008 -Mt 0 -Is 5.0 -Id -1.0 -It tcp -Il 0 -If 0 -Ii 1 -Iv 32 -Pn tcp -Ps 0 -Pa 0 -Pf 1 -Po 0 
r -t 0.546820375 -Hs 4 -Hd -2 -Ni 4 -Nx 54.02 -Ny 9.52 -Nz 0.00 -Ne 999.993821 -Nl RTR -Nw --- -Ma 0 -Md 5000000 -Ms ffff0008 -Mt 0 -Is 5.0 -Id -1.0 -It tcp -Il 0 -If 0 -Ii 1 -Iv 32 -Pn tcp -Ps 0 -Pa 0 -Pf 1 -Po 0 
r -t 0.546820375 -Hs 4 -Hd -2 -Ni 4 -Nx 54.02 -Ny 9.52 -Nz 0.00 -Ne 999.993821 -Nl AGT -Nw --- -Ma 0 -Md 5000000 -Ms ffff0008 -Mt 0 -Is 5.0 -Id -1.0 -It tcp -Il 0 -If 0 -Ii 1 -Iv 32 -Pn tcp -Ps 0 -Pa 0 -Pf 1 -Po 0 
r -t 0.546820436 -Hs 2 -Hd -2 -Ni 2 -Nx 95.43 -Ny 40.85 -Nz 0.00 -Ne 999.993821 -Nl RTR -Nw --- -Ma 0 -Md 5000000 -Ms ffff0008 -Mt 0 -Is 5.0 -Id -1.0 -It tcp -Il 0 -If 0 -Ii 1 -Iv 32 -Pn tcp -Ps 0 -Pa 0 -Pf 1 -Po 0 
r -t 0.546820436 -Hs 2 -Hd -2 -Ni 2 -Nx 95.43 -Ny 40.85 -Nz 0.00 -Ne 999.993821 -Nl AGT -Nw --- -Ma 0 -Md 5000000 -Ms ffff0008 -Mt 0 -Is 5.0 -Id -1.0 -It tcp -Il 0 -If 0 -Ii 1 -Iv 32 -Pn tcp -Ps 0 -Pa 0 -Pf 1 -Po 0 
r -t 0.546820443 -Hs 3 -Hd -2 -Ni 3 -Nx 97.81 -Ny 96.61 -Nz 0.00 -Ne 999.993823 -Nl RTR -Nw --- -Ma 0 -Md 5000000 -Ms ffff0008 -Mt 0 -Is 5.0 -Id -1.0 -It tcp -Il 0 -If 0 -Ii 1 -Iv 32 -Pn tcp -Ps 0 -Pa 0 -Pf 1 -Po 0 
r -t 0.546820443 -Hs 3 -Hd -2 -Ni 3 -Nx 97.81 -Ny 96.61 -Nz 0.00 -Ne 999.993823 -Nl AGT -Nw --- -Ma 0 -Md 5000000 -Ms ffff0008 -Mt 0 -Is 5.0 -Id -1.0 -It tcp -Il 0 -If 0 -Ii 1 -Iv 32 -Pn tcp -Ps 0 -Pa 0 -Pf 1 -Po 0 
s -t 0.689389335 -Hs 2 -Hd -2 -Ni 2 -Nx 95.43 -Ny 40.85 -Nz 0.00 -Ne 999.991709 -Nl AGT -Nw --- -Ma 0 -Md 2000000 -Ms 0 -Mt 0 -Is 2.0 -Id -1.0 -It tcp -Il 0 -If 0 -Ii 2 -Iv 32 -Pn tcp -Ps 0 -Pa 0 -Pf 0 -Po 0 
r -t 0.689389335 -Hs 2 -Hd -2 -Ni 2 -Nx 95.43 -Ny 40.85 -Nz 0.00 -Ne 999.991709 -Nl RTR -Nw --- -Ma 0 -Md 2000000 -Ms 0 -Mt 0 -Is 2.0 -Id -1.0 -It tcp -Il 0 -If 0 -Ii 2 -Iv 32 -Pn tcp -Ps 0 -Pa 0 -Pf 0 -Po 0 
s -t 0.689389335 -Hs 2 -Hd -2 -Ni 2 -Nx 95.43 -Ny 40.85 -Nz 0.00 -Ne 999.991709 -Nl RTR -Nw --- -Ma 0 -Md 2000000 -Ms 0 -Mt 0 -Is 2.0 -Id -1.0 -It tcp -Il 0 -If 0 -Ii 2 -Iv 32 -Pn tcp -Ps 0 -Pa 0 -Pf 0 -Po 0 
s -t 0.689414335 -Hs 2 -Hd -2 -Ni 2 -Nx 95.43 -Ny 40.85 -Nz 0.00 -Ne 999.991546 -Nl MAC -Nw --- -Ma 0 -Md 2000000 -Ms ffff0008 -Mt 0 -Is 2.0 -Id -1.0 -It tcp -Il 20 -If 0 -Ii 2 -Iv 32 -Pn tcp -Ps 0 -Pa 0 -Pf 0 -Po 0 
N -t 0.689415 -n 4 -e 999.991544
N -t 0.689415 -n 3 -e 999.991546
N -t 0.689415 -n 0 -e 99.999880
N -t 0.689415 -n 1 -e 999.991544
N -t 0.689415 -n 5 -e 999.991546
r -t 0.689494508 -Hs 4 -Hd -2 -Ni 4 -Nx 54.02 -Ny 9.52 -Nz 0.00 -Ne 999.991544 -Nl MAC -Nw --- -Ma 0 -Md 2000000 -Ms ffff0008 -Mt 0 -Is 2.0 -Id -1.0 -It tcp -Il 0 -If 0 -Ii 2 -Iv 32 -Pn tcp -Ps 0 -Pa 0 -Pf 1 -Po 0 
r -t 0.689494521 -Hs 3 -Hd -2 -Ni 3 -Nx 97.81 -Ny 96.61 -Nz 0.00 -Ne 999.991546 -Nl MAC -Nw --- -Ma 0 -Md 2000000 -Ms ffff0008 -Mt 0 -Is 2.0 -Id -1.0 -It tcp -Il 0 -If 0 -Ii 2 -Iv 32 -Pn tcp -Ps 0 -Pa 0 -Pf 1 -Po 0 
r -t 0.689494595 -Hs 0 -Hd -2 -Ni 0 -Nx 20.00 -Ny 20.00 -Nz 0.00 -Ne 99.999880 -Nl MAC -Nw --- -Ma 0 -Md 2000000 -Ms ffff0008 -Mt 0 -Is 2.0 -Id -1.0 -It tcp -Il 0 -If 0 -Ii 2 -Iv 32 -Pn tcp -Ps 0 -Pa 0 -Pf 1 -Po 0 
r -t 0.689494631 -Hs 1 -Hd -2 -Ni 1 -Nx 28.66 -Ny 99.40 -Nz 0.00 -Ne 999.991544 -Nl MAC -Nw --- -Ma 0 -Md 2000000 -Ms ffff0008 -Mt 0 -Is 2.0 -Id -1.0 -It tcp -Il 0 -If 0 -Ii 2 -Iv 32 -Pn tcp -Ps 0 -Pa 0 -Pf 1 -Po 0 
r -t 0.689494659 -Hs 5 -Hd -2 -Ni 5 -Nx 2.29 -Ny 69.10 -Nz 0.00 -Ne 999.991546 -Nl MAC -Nw --- -Ma 0 -Md 2000000 -Ms ffff0008 -Mt 0 -Is 2.0 -Id -1.0 -It tcp -Il 0 -If 0 -Ii 2 -Iv 32 -Pn tcp -Ps 0 -Pa 0 -Pf 1 -Po 0 
r -t 0.689519508 -Hs 4 -Hd -2 -Ni 4 -Nx 54.02 -Ny 9.52 -Nz 0.00 -Ne 999.991544 -Nl RTR -Nw --- -Ma 0 -Md 2000000 -Ms ffff0008 -Mt 0 -Is 2.0 -Id -1.0 -It tcp -Il 0 -If 0 -Ii 2 -Iv 32 -Pn tcp -Ps 0 -Pa 0 -Pf 1 -Po 0 
r -t 0.689519508 -Hs 4 -Hd -2 -Ni 4 -Nx 54.02 -Ny 9.52 -Nz 0.00 -Ne 999.991544 -Nl AGT -Nw --- -Ma 0 -Md 2000000 -Ms ffff0008 -Mt 0 -Is 2.0 -Id -1.0 -It tcp -Il 0 -If 0 -Ii 2 -Iv 32 -Pn tcp -Ps 0 -Pa 0 -Pf 1 -Po 0 
r -t 0.689519521 -Hs 3 -Hd -2 -Ni 3 -Nx 97.81 -Ny 96.61 -Nz 0.00 -Ne 999.991546 -Nl RTR -Nw --- -Ma 0 -Md 2000000 -Ms ffff0008 -Mt 0 -Is 2.0 -Id -1.0 -It tcp -Il 0 -If 0 -Ii 2 -Iv 32 -Pn tcp -Ps 0 -Pa 0 -Pf 1 -Po 0 
r -t 0.689519521 -Hs 3 -Hd -2 -Ni 3 -Nx 97.81 -Ny 96.61 -Nz 0.00 -Ne 999.991546 -Nl AGT -Nw --- -Ma 0 -Md 2000000 -Ms ffff0008 -Mt 0 -Is 2.0 -Id -1.0 -It tcp -Il 0 -If 0 -Ii 2 -Iv 32 -Pn tcp -Ps 0 -Pa 0 -Pf 1 -Po 0 
r -t 0.689519595 -Hs 0 -Hd -2 -Ni 0 -Nx 20.00 -Ny 20.00 -Nz 0.00 -Ne 99.999880 -Nl RTR -Nw --- -Ma 0 -Md 2000000 -Ms ffff0008 -Mt 0 -Is 2.0 -Id -1.0 -It tcp -Il 0 -If 0 -Ii 2 -Iv 32 -Pn tcp -Ps 0 -Pa 0 -Pf 1 -Po 0 
r -t 0.689519595 -Hs 0 -Hd -2 -Ni 0 -Nx 20.00 -Ny 20.00 -Nz 0.00 -Ne 99.999880 -Nl AGT -Nw --- -Ma 0 -Md 2000000 -Ms ffff0008 -Mt 0 -Is 2.0 -Id -1.0 -It tcp -Il 0 -If 0 -Ii 2 -Iv 32 -Pn tcp -Ps 0 -Pa 0 -Pf 1 -Po 0 
r -t 0.689519631 -Hs 1 -Hd -2 -Ni 1 -Nx 28.66 -Ny 99.40 -Nz 0.00 -Ne 999.991544 -Nl RTR -Nw --- -Ma 0 -Md 2000000 -Ms ffff0008 -Mt 0 -Is 2.0 -Id -1.0 -It tcp -Il 0 -If 0 -Ii 2 -Iv 32 -Pn tcp -Ps 0 -Pa 0 -Pf 1 -Po 0 
r -t 0.689519631 -Hs 1 -Hd -2 -Ni 1 -Nx 28.66 -Ny 99.40 -Nz 0.00 -Ne 999.991544 -Nl AGT -Nw --- -Ma 0 -Md 2000000 -Ms ffff0008 -Mt 0 -Is 2.0 -Id -1.0 -It tcp -Il 0 -If 0 -Ii 2 -Iv 32 -Pn tcp -Ps 0 -Pa 0 -Pf 1 -Po 0 
r -t 0.689519659 -Hs 5 -Hd -2 -Ni 5 -Nx 2.29 -Ny 69.10 -Nz 0.00 -Ne 999.991546 -Nl RTR -Nw --- -Ma 0 -Md 2000000 -Ms ffff0008 -Mt 0 -Is 2.0 -Id -1.0 -It tcp -Il 0 -If 0 -Ii 2 -Iv 32 -Pn tcp -Ps 0 -Pa 0 -Pf 1 -Po 0 
r -t 0.689519659 -Hs 5 -Hd -2 -Ni 5 -Nx 2.29 -Ny 69.10 -Nz 0.00 -Ne 999.991546 -Nl AGT -Nw --- -Ma 0 -Md 2000000 -Ms ffff0008 -Mt 0 -Is 2.0 -Id -1.0 -It tcp -Il 0 -If 0 -Ii 2 -Iv 32 -Pn tcp -Ps 0 -Pa 0 -Pf 1 -Po 0 
s -t 1.687906482 -Hs 4 -Hd -2 -Ni 4 -Nx 54.02 -Ny 9.52 -Nz 0.00 -Ne 999.975457 -Nl AGT -Nw --- -Ma 0 -Md 4000000 -Ms 0 -Mt 0 -Is 4.0 -Id -1.0 -It udp -Il 4 -If 0 -Ii 3 -Iv 32 
r -t 1.687906482 -Hs 4 -Hd -2 -Ni 4 -Nx 54.02 -Ny 9.52 -Nz 0.00 -Ne 999.975457 -Nl RTR -Nw --- -Ma 0 -Md 4000000 -Ms 0 -Mt 0 -Is 4.0 -Id -1.0 -It udp -Il 4 -If 0 -Ii 3 -Iv 32 
s -t 1.687906482 -Hs 4 -Hd -2 -Ni 4 -Nx 54.02 -Ny 9.52 -Nz 0.00 -Ne 999.975457 -Nl RTR -Nw --- -Ma 0 -Md 4000000 -Ms 0 -Mt 0 -Is 4.0 -Id -1.0 -It udp -Il 4 -If 0 -Ii 3 -Iv 32 
s -t 1.687931482 -Hs 4 -Hd -2 -Ni 4 -Nx 54.02 -Ny 9.52 -Nz 0.00 -Ne 999.975457 -Nl MAC -Nw --- -Ma 0 -Md 4000000 -Ms 8 -Mt 0 -Is 4.0 -Id -1.0 -It udp -Il 24 -If 0 -Ii 3 -Iv 32 
N -t 1.687932 -n 0 -e 99.999832
N -t 1.687932 -n 2 -e 999.975456
N -t 1.687932 -n 5 -e 999.975456
N -t 1.687932 -n 1 -e 999.975454
N -t 1.687932 -n 3 -e 999.975456
r -t 1.688027655 -Hs 2 -Hd -2 -Ni 2 -Nx 95.43 -Ny 40.85 -Nz 0.00 -Ne 999.975456 -Nl MAC -Nw --- -Ma 0 -Md 4000000 -Ms 8 -Mt 0 -Is 4.0 -Id -1.0 -It udp -Il 4 -If 0 -Ii 3 -Iv 32 
r -t 1.688052655 -Hs 2 -Hd -2 -Ni 2 -Nx 95.43 -Ny 40.85 -Nz 0.00 -Ne 999.975456 -Nl RTR -Nw --- -Ma 0 -Md 4000000 -Ms 8 -Mt 0 -Is 4.0 -Id -1.0 -It udp -Il 4 -If 0 -Ii 3 -Iv 32 
r -t 1.688052655 -Hs 2 -Hd -2 -Ni 2 -Nx 95.43 -Ny 40.85 -Nz 0.00 -Ne 999.975456 -Nl AGT -Nw --- -Ma 0 -Md 4000000 -Ms 8 -Mt 0 -Is 4.0 -Id -1.0 -It udp -Il 4 -If 0 -Ii 3 -Iv 32 
s -t 2.369938669 -Hs 2 -Hd -2 -Ni 2 -Nx 95.43 -Ny 40.85 -Nz 0.00 -Ne 999.964406 -Nl AGT -Nw --- -Ma 0 -Md 2000000 -Ms 0 -Mt 0 -Is 2.0 -Id -1.0 -It cbr -Il 4 -If 0 -Ii 4 -Iv 32 -Pn cbr -Pi 0 -Pf 0 -Po 0 
r -t 2.369938669 -Hs 2 -Hd -2 -Ni 2 -Nx 95.43 -Ny 40.85 -Nz 0.00 -Ne 999.964406 -Nl RTR -Nw --- -Ma 0 -Md 2000000 -Ms 0 -Mt 0 -Is 2.0 -Id -1.0 -It cbr -Il 4 -If 0 -Ii 4 -Iv 32 -Pn cbr -Pi 0 -Pf 0 -Po 0 
s -t 2.369938669 -Hs 2 -Hd -2 -Ni 2 -Nx 95.43 -Ny 40.85 -Nz 0.00 -Ne 999.964406 -Nl RTR -Nw --- -Ma 0 -Md 2000000 -Ms 0 -Mt 0 -Is 2.0 -Id -1.0 -It cbr -Il 4 -If 0 -Ii 4 -Iv 32 -Pn cbr -Pi 0 -Pf 0 -Po 0 
s -t 2.369963669 -Hs 2 -Hd -2 -Ni 2 -Nx 95.43 -Ny 40.85 -Nz 0.00 -Ne 999.964406 -Nl MAC -Nw --- -Ma 0 -Md 2000000 -Ms ffff0008 -Mt 0 -Is 2.0 -Id -1.0 -It cbr -Il 24 -If 0 -Ii 4 -Iv 32 -Pn cbr -Pi 0 -Pf 0 -Po 0 
N -t 2.369964 -n 4 -e 999.964404
N -t 2.369964 -n 3 -e 999.964404
N -t 2.369964 -n 0 -e 99.999784
N -t 2.369964 -n 1 -e 999.964402
N -t 2.369964 -n 5 -e 999.964404
r -t 2.370059842 -Hs 4 -Hd -2 -Ni 4 -Nx 54.02 -Ny 9.52 -Nz 0.00 -Ne 999.964404 -Nl MAC -Nw --- -Ma 0 -Md 2000000 -Ms ffff0008 -Mt 0 -Is 2.0 -Id -1.0 -It cbr -Il 4 -If 0 -Ii 4 -Iv 32 -Pn cbr -Pi 0 -Pf 1 -Po 0 
r -t 2.370059855 -Hs 3 -Hd -2 -Ni 3 -Nx 97.81 -Ny 96.61 -Nz 0.00 -Ne 999.964404 -Nl MAC -Nw --- -Ma 0 -Md 2000000 -Ms ffff0008 -Mt 0 -Is 2.0 -Id -1.0 -It cbr -Il 4 -If 0 -Ii 4 -Iv 32 -Pn cbr -Pi 0 -Pf 1 -Po 0 
r -t 2.370059930 -Hs 0 -Hd -2 -Ni 0 -Nx 20.00 -Ny 20.00 -Nz 0.00 -Ne 99.999784 -Nl MAC -Nw --- -Ma 0 -Md 2000000 -Ms ffff0008 -Mt 0 -Is 2.0 -Id -1.0 -It cbr -Il 4 -If 0 -Ii 4 -Iv 32 -Pn cbr -Pi 0 -Pf 1 -Po 0 
r -t 2.370059965 -Hs 1 -Hd -2 -Ni 1 -Nx 28.66 -Ny 99.40 -Nz 0.00 -Ne 999.964402 -Nl MAC -Nw --- -Ma 0 -Md 2000000 -Ms ffff0008 -Mt 0 -Is 2.0 -Id -1.0 -It cbr -Il 4 -If 0 -Ii 4 -Iv 32 -Pn cbr -Pi 0 -Pf 1 -Po 0 
r -t 2.370059994 -Hs 5 -Hd -2 -Ni 5 -Nx 2.29 -Ny 69.10 -Nz 0.00 -Ne 999.964404 -Nl MAC -Nw --- -Ma 0 -Md 2000000 -Ms ffff0008 -Mt 0 -Is 2.0 -Id -1.0 -It cbr -Il 4 -If 0 -Ii 4 -Iv 32 -Pn cbr -Pi 0 -Pf 1 -Po 0 
r -t 2.370084842 -Hs 4 -Hd -2 -Ni 4 -Nx 54.02 -Ny 9.52 -Nz 0.00 -Ne 999.964404 -Nl RTR -Nw --- -Ma 0 -Md 2000000 -Ms ffff0008 -Mt 0 -Is 2.0 -Id -1.0 -It cbr -Il 4 -If 0 -Ii 4 -Iv 32 -Pn cbr -Pi 0 -Pf 1 -Po 0 
r -t 2.370084842 -Hs 4 -Hd -2 -Ni 4 -Nx 54.02 -Ny 9.52 -Nz 0.00 -Ne 999.964404 -Nl AGT -Nw --- -Ma 0 -Md 2000000 -Ms ffff0008 -Mt 0 -Is 2.0 -Id -1.0 -It cbr -Il 4 -If 0 -Ii 4 -Iv 32 -Pn cbr -Pi 0 -Pf 1 -Po 0 
r -t 2.370084855 -Hs 3 -Hd -2 -Ni 3 -Nx 97.81 -Ny 96.61 -Nz 0.00 -Ne 999.964404 -Nl RTR -Nw --- -Ma 0 -Md 2000000 -Ms ffff0008 -Mt 0 -Is 2.0 -Id -1.0 -It cbr -Il 4 -If 0 -Ii 4 -Iv 32 -Pn cbr -Pi 0 -Pf 1 -Po 0 
r -t 2.370084855 -Hs 3 -Hd -2 -Ni 3 -Nx 97.81 -Ny 96.61 -Nz 0.00 -Ne 999.964404 -Nl AGT -Nw --- -Ma 0 -Md 2000000 -Ms ffff0008 -Mt 0 -Is 2.0 -Id -1.0 -It cbr -Il 4 -If 0 -Ii 4 -Iv 32 -Pn cbr -Pi 0 -Pf 1 -Po 0 
r -t 2.370084930 -Hs 0 -Hd -2 -Ni 0 -Nx 20.00 -Ny 20.00 -Nz 0.00 -Ne 99.999784 -Nl RTR -Nw --- -Ma 0 -Md 2000000 -Ms ffff0008 -Mt 0 -Is 2.0 -Id -1.0 -It cbr -Il 4 -If 0 -Ii 4 -Iv 32 -Pn cbr -Pi 0 -Pf 1 -Po 0 
r -t 2.370084930 -Hs 0 -Hd -2 -Ni 0 -Nx 20.00 -Ny 20.00 -Nz 0.00 -Ne 99.999784 -Nl AGT -Nw --- -Ma 0 -Md 2000000 -Ms ffff0008 -Mt 0 -Is 2.0 -Id -1.0 -It cbr -Il 4 -If 0 -Ii 4 -Iv 32 -Pn cbr -Pi 0 -Pf 1 -Po 0 
r -t 2.370084965 -Hs 1 -Hd -2 -Ni 1 -Nx 28.66 -Ny 99.40 -Nz 0.00 -Ne 999.964402 -Nl RTR -Nw --- -Ma 0 -Md 2000000 -Ms ffff0008 -Mt 0 -Is 2.0 -Id -1.0 -It cbr -Il 4 -If 0 -Ii 4 -Iv 32 -Pn cbr -Pi 0 -Pf 1 -Po 0 
r -t 2.370084965 -Hs 1 -Hd -2 -Ni 1 -Nx 28.66 -Ny 99.40 -Nz 0.00 -Ne 999.964402 -Nl AGT -Nw --- -Ma 0 -Md 2000000 -Ms ffff0008 -Mt 0 -Is 2.0 -Id -1.0 -It cbr -Il 4 -If 0 -Ii 4 -Iv 32 -Pn cbr -Pi 0 -Pf 1 -Po 0 
r -t 2.370084994 -Hs 5 -Hd -2 -Ni 5 -Nx 2.29 -Ny 69.10 -Nz 0.00 -Ne 999.964404 -Nl RTR -Nw --- -Ma 0 -Md 2000000 -Ms ffff0008 -Mt 0 -Is 2.0 -Id -1.0 -It cbr -Il 4 -If 0 -Ii 4 -Iv 32 -Pn cbr -Pi 0 -Pf 1 -Po 0 
r -t 2.370084994 -Hs 5 -Hd -2 -Ni 5 -Nx 2.29 -Ny 69.10 -Nz 0.00 -Ne 999.964404 -Nl AGT -Nw --- -Ma 0 -Md 2000000 -Ms ffff0008 -Mt 0 -Is 2.0 -Id -1.0 -It cbr -Il 4 -If 0 -Ii 4 -Iv 32 -Pn cbr -Pi 0 -Pf 1 -Po 0 
s -t 2.695516454 -Hs 1 -Hd -2 -Ni 1 -Nx 28.66 -Ny 99.40 -Nz 0.00 -Ne 999.959040 -Nl AGT -Nw --- -Ma 0 -Md 1000000 -Ms 0 -Mt 0 -Is 1.0 -Id -1.0 -It udp -Il 1 -If 0 -Ii 5 -Iv 32 
r -t 2.695516454 -Hs 1 -Hd -2 -Ni 1 -Nx 28.66 -Ny 99.40 -Nz 0.00 -Ne 999.959040 -Nl RTR -Nw --- -Ma 0 -Md 1000000 -Ms 0 -Mt 0 -Is 1.0 -Id -1.0 -It udp -Il 1 -If 0 -Ii 5 -Iv 32 
s -t 2.695516454 -Hs 1 -Hd -2 -Ni 1 -Nx 28.66 -Ny 99.40 -Nz 0.00 -Ne 999.959040 -Nl RTR -Nw --- -Ma 0 -Md 1000000 -Ms 0 -Mt 0 -Is 1.0 -Id -1.0 -It udp -Il 1 -If 0 -Ii 5 -Iv 32 
s -t 2.695541454 -Hs 1 -Hd -2 -Ni 1 -Nx 28.66 -Ny 99.40 -Nz 0.00 -Ne 999.959040 -Nl MAC -Nw --- -Ma 0 -Md 1000000 -Ms 8 -Mt 0 -Is 1.0 -Id -1.0 -It udp -Il 21 -If 0 -Ii 5 -Iv 32 
N -t 2.695542 -n 5 -e 999.959040
N -t 2.695542 -n 3 -e 999.959040
N -t 2.695542 -n 0 -e 99.999742
N -t 2.695542 -n 2 -e 999.959042
N -t 2.695542 -n 4 -e 999.959040
r -t 2.695625588 -Hs 5 -Hd -2 -Ni 5 -Nx 2.29 -Ny 69.10 -Nz 0.00 -Ne 999.959040 -Nl MAC -Nw --- -Ma 0 -Md 1000000 -Ms 8 -Mt 0 -Is 1.0 -Id -1.0 -It udp -Il 1 -If 0 -Ii 5 -Iv 32 
r -t 2.695650588 -Hs 5 -Hd -2 -Ni 5 -Nx 2.29 -Ny 69.10 -Nz 0.00 -Ne 999.959040 -Nl RTR -Nw --- -Ma 0 -Md 1000000 -Ms 8 -Mt 0 -Is 1.0 -Id -1.0 -It udp -Il 1 -If 0 -Ii 5 -Iv 32 
r -t 2.695650588 -Hs 5 -Hd -2 -Ni 5 -Nx 2.29 -Ny 69.10 -Nz 0.00 -Ne 999.959040 -Nl AGT -Nw --- -Ma 0 -Md 1000000 -Ms 8 -Mt 0 -Is 1.0 -Id -1.0 -It udp -Il 1 -If 0 -Ii 5 -Iv 32 
s -t 70.348373241 -Hs 4 -Hd -2 -Ni 4 -Nx 54.02 -Ny 9.52 -Nz 0.00 -Ne 998.859727 -Nl AGT -Nw --- -Ma 0 -Md 4000000 -Ms 0 -Mt 0 -Is 4.0 -Id -1.0 -It tcp -Il 0 -If 0 -Ii 6 -Iv 32 -Pn tcp -Ps 0 -Pa 0 -Pf 0 -Po 0 
r -t 70.348373241 -Hs 4 -Hd -2 -Ni 4 -Nx 54.02 -Ny 9.52 -Nz 0.00 -Ne 998.859727 -Nl RTR -Nw --- -Ma 0 -Md 4000000 -Ms 0 -Mt 0 -Is 4.0 -Id -1.0 -It tcp -Il 0 -If 0 -Ii 6 -Iv 32 -Pn tcp -Ps 0 -Pa 0 -Pf 0 -Po 0 
s -t 70.348373241 -Hs 4 -Hd -2 -Ni 4 -Nx 54.02 -Ny 9.52 -Nz 0.00 -Ne 998.859727 -Nl RTR -Nw --- -Ma 0 -Md 4000000 -Ms 0 -Mt 0 -Is 4.0 -Id -1.0 -It tcp -Il 0 -If 0 -Ii 6 -Iv 32 -Pn tcp -Ps 0 -Pa 0 -Pf 0 -Po 0 
s -t 70.348398241 -Hs 4 -Hd -2 -Ni 4 -Nx 54.02 -Ny 9.52 -Nz 0.00 -Ne 998.859727 -Nl MAC -Nw --- -Ma 0 -Md 4000000 -Ms ffff0008 -Mt 0 -Is 4.0 -Id -1.0 -It tcp -Il 20 -If 0 -Ii 6 -Iv 32 -Pn tcp -Ps 0 -Pa 0 -Pf 0 -Po 0 
N -t 70.348398 -n 0 -e 99.999702
N -t 70.348398 -n 2 -e 998.859727
N -t 70.348399 -n 5 -e 998.859725
N -t 70.348399 -n 1 -e 998.859725
N -t 70.348399 -n 3 -e 998.859725
r -t 70.348478360 -Hs 0 -Hd -2 -Ni 0 -Nx 20.00 -Ny 20.00 -Nz 0.00 -Ne 99.999702 -Nl MAC -Nw --- -Ma 0 -Md 4000000 -Ms ffff0008 -Mt 0 -Is 4.0 -Id -1.0 -It tcp -Il 0 -If 0 -Ii 6 -Iv 32 -Pn tcp -Ps 0 -Pa 0 -Pf 1 -Po 0 
r -t 70.348478414 -Hs 2 -Hd -2 -Ni 2 -Nx 95.43 -Ny 40.85 -Nz 0.00 -Ne 998.859727 -Nl MAC -Nw --- -Ma 0 -Md 4000000 -Ms ffff0008 -Mt 0 -Is 4.0 -Id -1.0 -It tcp -Il 0 -If 0 -Ii 6 -Iv 32 -Pn tcp -Ps 0 -Pa 0 -Pf 1 -Po 0 
r -t 70.348478504 -Hs 5 -Hd -2 -Ni 5 -Nx 2.29 -Ny 69.10 -Nz 0.00 -Ne 998.859725 -Nl MAC -Nw --- -Ma 0 -Md 4000000 -Ms ffff0008 -Mt 0 -Is 4.0 -Id -1.0 -It tcp -Il 0 -If 0 -Ii 6 -Iv 32 -Pn tcp -Ps 0 -Pa 0 -Pf 1 -Po 0 
r -t 70.348478552 -Hs 1 -Hd -2 -Ni 1 -Nx 28.66 -Ny 99.40 -Nz 0.00 -Ne 998.859725 -Nl MAC -Nw --- -Ma 0 -Md 4000000 -Ms ffff0008 -Mt 0 -Is 4.0 -Id -1.0 -It tcp -Il 0 -If 0 -Ii 6 -Iv 32 -Pn tcp -Ps 0 -Pa 0 -Pf 1 -Po 0 
r -t 70.348478566 -Hs 3 -Hd -2 -Ni 3 -Nx 97.81 -Ny 96.61 -Nz 0.00 -Ne 998.859725 -Nl MAC -Nw --- -Ma 0 -Md 4000000 -Ms ffff0008 -Mt 0 -Is 4.0 -Id -1.0 -It tcp -Il 0 -If 0 -Ii 6 -Iv 32 -Pn tcp -Ps 0 -Pa 0 -Pf 1 -Po 0 
r -t 70.348503360 -Hs 0 -Hd -2 -Ni 0 -Nx 20.00 -Ny 20.00 -Nz 0.00 -Ne 99.999702 -Nl RTR -Nw --- -Ma 0 -Md 4000000 -Ms ffff0008 -Mt 0 -Is 4.0 -Id -1.0 -It tcp -Il 0 -If 0 -Ii 6 -Iv 32 -Pn tcp -Ps 0 -Pa 0 -Pf 1 -Po 0 
r -t 70.348503360 -Hs 0 -Hd -2 -Ni 0 -Nx 20.00 -Ny 20.00 -Nz 0.00 -Ne 99.999702 -Nl AGT -Nw --- -Ma 0 -Md 4000000 -Ms ffff0008 -Mt 0 -Is 4.0 -Id -1.0 -It tcp -Il 0 -If 0 -Ii 6 -Iv 32 -Pn tcp -Ps 0 -Pa 0 -Pf 1 -Po 0 
r -t 70.348503414 -Hs 2 -Hd -2 -Ni 2 -Nx 95.43 -Ny 40.85 -Nz 0.00 -Ne 998.859727 -Nl RTR -Nw --- -Ma 0 -Md 4000000 -Ms ffff0008 -Mt 0 -Is 4.0 -Id -1.0 -It tcp -Il 0 -If 0 -Ii 6 -Iv 32 -Pn tcp -Ps 0 -Pa 0 -Pf 1 -Po 0 
r -t 70.348503414 -Hs 2 -Hd -2 -Ni 2 -Nx 95.43 -Ny 40.85 -Nz 0.00 -Ne 998.859727 -Nl AGT -Nw --- -Ma 0 -Md 4000000 -Ms ffff0008 -Mt 0 -Is 4.0 -Id -1.0 -It tcp -Il 0 -If 0 -Ii 6 -Iv 32 -Pn tcp -Ps 0 -Pa 0 -Pf 1 -Po 0 
r -t 70.348503504 -Hs 5 -Hd -2 -Ni 5 -Nx 2.29 -Ny 69.10 -Nz 0.00 -Ne 998.859725 -Nl RTR -Nw --- -Ma 0 -Md 4000000 -Ms ffff0008 -Mt 0 -Is 4.0 -Id -1.0 -It tcp -Il 0 -If 0 -Ii 6 -Iv 32 -Pn tcp -Ps 0 -Pa 0 -Pf 1 -Po 0 
r -t 70.348503504 -Hs 5 -Hd -2 -Ni 5 -Nx 2.29 -Ny 69.10 -Nz 0.00 -Ne 998.859725 -Nl AGT -Nw --- -Ma 0 -Md 4000000 -Ms ffff0008 -Mt 0 -Is 4.0 -Id -1.0 -It tcp -Il 0 -If 0 -Ii 6 -Iv 32 -Pn tcp -Ps 0 -Pa 0 -Pf 1 -Po 0 
r -t 70.348503552 -Hs 1 -Hd -2 -Ni 1 -Nx 28.66 -Ny 99.40 -Nz 0.00 -Ne 998.859725 -Nl RTR -Nw --- -Ma 0 -Md 4000000 -Ms ffff0008 -Mt 0 -Is 4.0 -Id -1.0 -It tcp -Il 0 -If 0 -Ii 6 -Iv 32 -Pn tcp -Ps 0 -Pa 0 -Pf 1 -Po 0 
r -t 70.348503552 -Hs 1 -Hd -2 -Ni 1 -Nx 28.66 -Ny 99.40 -Nz 0.00 -Ne 998.859725 -Nl AGT -Nw --- -Ma 0 -Md 4000000 -Ms ffff0008 -Mt 0 -Is 4.0 -Id -1.0 -It tcp -Il 0 -If 0 -Ii 6 -Iv 32 -Pn tcp -Ps 0 -Pa 0 -Pf 1 -Po 0 
r -t 70.348503566 -Hs 3 -Hd -2 -Ni 3 -Nx 97.81 -Ny 96.61 -Nz 0.00 -Ne 998.859725 -Nl RTR -Nw --- -Ma 0 -Md 4000000 -Ms ffff0008 -Mt 0 -Is 4.0 -Id -1.0 -It tcp -Il 0 -If 0 -Ii 6 -Iv 32 -Pn tcp -Ps 0 -Pa 0 -Pf 1 -Po 0 
r -t 70.348503566 -Hs 3 -Hd -2 -Ni 3 -Nx 97.81 -Ny 96.61 -Nz 0.00 -Ne 998.859725 -Nl AGT -Nw --- -Ma 0 -Md 4000000 -Ms ffff0008 -Mt 0 -Is 4.0 -Id -1.0 -It tcp -Il 0 -If 0 -Ii 6 -Iv 32 -Pn tcp -Ps 0 -Pa 0 -Pf 1 -Po 0 
s -t 141.319091221 -Hs 3 -Hd -2 -Ni 3 -Nx 97.81 -Ny 96.61 -Nz 0.00 -Ne 997.706463 -Nl AGT -Nw --- -Ma 0 -Md 3000000 -Ms 0 -Mt 0 -Is 3.0 -Id -1.0 -It udp -Il 3 -If 0 -Ii 7 -Iv 32 
r -t 141.319091221 -Hs 3 -Hd -2 -Ni 3 -Nx 97.81 -Ny 96.61 -Nz 0.00 -Ne 997.706463 -Nl RTR -Nw --- -Ma 0 -Md 3000000 -Ms 0 -Mt 0 -Is 3.0 -Id -1.0 -It udp -Il 3 -If 0 -Ii 7 -Iv 32 
s -t 141.319091221 -Hs 3 -Hd -2 -Ni 3 -Nx 97.81 -Ny 96.61 -Nz 0.00 -Ne 997.706463 -Nl RTR -Nw --- -Ma 0 -Md 3000000 -Ms 0 -Mt 0 -Is 3.0 -Id -1.0 -It udp -Il 3 -If 0 -Ii 7 -Iv 32 
s -t 141.319116221 -Hs 3 -Hd -2 -Ni 3 -Nx 97.81 -Ny 96.61 -Nz 0.00 -Ne 997.706463 -Nl MAC -Nw --- -Ma 0 -Md 3000000 -Ms 8 -Mt 0 -Is 3.0 -Id -1.0 -It udp -Il 23 -If 0 -Ii 7 -Iv 32 
N -t 141.319116 -n 2 -e 997.706463
N -t 141.319116 -n 1 -e 997.706460
N -t 141.319117 -n 4 -e 997.706463
N -t 141.319117 -n 5 -e 997.706460
N -t 141.319117 -n 0 -e 99.999656
r -t 141.319208546 -Hs 4 -Hd -2 -Ni 4 -Nx 54.02 -Ny 9.52 -Nz 0.00 -Ne 997.706463 -Nl MAC -Nw --- -Ma 0 -Md 3000000 -Ms 8 -Mt 0 -Is 3.0 -Id -1.0 -It udp -Il 3 -If 0 -Ii 7 -Iv 32 
r -t 141.319233546 -Hs 4 -Hd -2 -Ni 4 -Nx 54.02 -Ny 9.52 -Nz 0.00 -Ne 997.706463 -Nl RTR -Nw --- -Ma 0 -Md 3000000 -Ms 8 -Mt 0 -Is 3.0 -Id -1.0 -It udp -Il 3 -If 0 -Ii 7 -Iv 32 
r -t 141.319233546 -Hs 4 -Hd -2 -Ni 4 -Nx 54.02 -Ny 9.52 -Nz 0.00 -Ne 997.706463 -Nl AGT -Nw --- -Ma 0 -Md 3000000 -Ms 8 -Mt 0 -Is 3.0 -Id -1.0 -It udp -Il 3 -If 0 -Ii 7 -Iv 32 
s -t 142.084540223 -Hs 5 -Hd -2 -Ni 5 -Nx 2.29 -Ny 69.10 -Nz 0.00 -Ne 997.693948 -Nl AGT -Nw --- -Ma 0 -Md 5000000 -Ms 0 -Mt 0 -Is 5.0 -Id -1.0 -It udp -Il 5 -If 0 -Ii 8 -Iv 32 
r -t 142.084540223 -Hs 5 -Hd -2 -Ni 5 -Nx 2.29 -Ny 69.10 -Nz 0.00 -Ne 997.693948 -Nl RTR -Nw --- -Ma 0 -Md 5000000 -Ms 0 -Mt 0 -Is 5.0 -Id -1.0 -It udp -Il 5 -If 0 -Ii 8 -Iv 32 
s -t 142.084540223 -Hs 5 -Hd -2 -Ni 5 -Nx 2.29 -Ny 69.10 -Nz 0.00 -Ne 997.693948 -Nl RTR -Nw --- -Ma 0 -Md 5000000 -Ms 0 -Mt 0 -Is 5.0 -Id -1.0 -It udp -Il 5 -If 0 -Ii 8 -Iv 32 
s -t 142.084565223 -Hs 5 -Hd -2 -Ni 5 -Nx 2.29 -Ny 69.10 -Nz 0.00 -Ne 997.693948 -Nl MAC -Nw --- -Ma 0 -Md 5000000 -Ms 8 -Mt 0 -Is 5.0 -Id -1.0 -It udp -Il 25 -If 0 -Ii 8 -Iv 32 
N -t 142.084565 -n 1 -e 997.693946
N -t 142.084565 -n 0 -e 99.999606
N -t 142.084565 -n 4 -e 997.693948
N -t 142.084566 -n 2 -e 997.693948
N -t 142.084566 -n 3 -e 997.693948
r -t 142.084665486 -Hs 4 -Hd -2 -Ni 4 -Nx 54.02 -Ny 9.52 -Nz 0.00 -Ne 997.693948 -Nl MAC -Nw --- -Ma 0 -Md 5000000 -Ms 8 -Mt 0 -Is 5.0 -Id -1.0 -It udp -Il 5 -If 0 -Ii 8 -Iv 32 
r -t 142.084690486 -Hs 4 -Hd -2 -Ni 4 -Nx 54.02 -Ny 9.52 -Nz 0.00 -Ne 997.693948 -Nl RTR -Nw --- -Ma 0 -Md 5000000 -Ms 8 -Mt 0 -Is 5.0 -Id -1.0 -It udp -Il 5 -If 0 -Ii 8 -Iv 32 
r -t 142.084690486 -Hs 4 -Hd -2 -Ni 4 -Nx 54.02 -Ny 9.52 -Nz 0.00 -Ne 997.693948 -Nl AGT -Nw --- -Ma 0 -Md 5000000 -Ms 8 -Mt 0 -Is 5.0 -Id -1.0 -It udp -Il 5 -If 0 -Ii 8 -Iv 32 
s -t 142.369938669 -Hs 2 -Hd -2 -Ni 2 -Nx 95.43 -Ny 40.85 -Nz 0.00 -Ne 997.689398 -Nl AGT -Nw --- -Ma 0 -Md 2000000 -Ms 0 -Mt 0 -Is 2.0 -Id -1.0 -It udp -Il 2 -If 0 -Ii 9 -Iv 32 
r -t 142.369938669 -Hs 2 -Hd -2 -Ni 2 -Nx 95.43 -Ny 40.85 -Nz 0.00 -Ne 997.689398 -Nl RTR -Nw --- -Ma 0 -Md 2000000 -Ms 0 -Mt 0 -Is 2.0 -Id -1.0 -It udp -Il 2 -If 0 -Ii 9 -Iv 32 
s -t 142.369938669 -Hs 2 -Hd -2 -Ni 2 -Nx 95.43 -Ny 40.85 -Nz 0.00 -Ne 997.689398 -Nl RTR -Nw --- -Ma 0 -Md 2000000 -Ms 0 -Mt 0 -Is 2.0 -Id -1.0 -It udp -Il 2 -If 0 -Ii 9 -Iv 32 
s -t 142.369963669 -Hs 2 -Hd -2 -Ni 2 -Nx 95.43 -Ny 40.85 -Nz 0.00 -Ne 997.689398 -Nl MAC -Nw --- -Ma 0 -Md 2000000 -Ms 8 -Mt 0 -Is 2.0 -Id -1.0 -It udp -Il 22 -If 0 -Ii 9 -Iv 32 
N -t 142.369964 -n 4 -e 997.689396
N -t 142.369964 -n 3 -e 997.689396
N -t 142.369964 -n 0 -e 99.999562
N -t 142.369964 -n 1 -e 997.689393
N -t 142.369964 -n 5 -e 997.689396
r -t 142.370051842 -Hs 4 -Hd -2 -Ni 4 -Nx 54.02 -Ny 9.52 -Nz 0.00 -Ne 997.689396 -Nl MAC -Nw --- -Ma 0 -Md 2000000 -Ms 8 -Mt 0 -Is 2.0 -Id -1.0 -It udp -Il 2 -If 0 -Ii 9 -Iv 32 
r -t 142.370076842 -Hs 4 -Hd -2 -Ni 4 -Nx 54.02 -Ny 9.52 -Nz 0.00 -Ne 997.689396 -Nl RTR -Nw --- -Ma 0 -Md 2000000 -Ms 8 -Mt 0 -Is 2.0 -Id -1.0 -It udp -Il 2 -If 0 -Ii 9 -Iv 32 
r -t 142.370076842 -Hs 4 -Hd -2 -Ni 4 -Nx 54.02 -Ny 9.52 -Nz 0.00 -Ne 997.689396 -Nl AGT -Nw --- -Ma 0 -Md 2000000 -Ms 8 -Mt 0 -Is 2.0 -Id -1.0 -It udp -Il 2 -If 0 -Ii 9 -Iv 32 
s -t 142.695516454 -Hs 1 -Hd -2 -Ni 1 -Nx 28.66 -Ny 99.40 -Nz 0.00 -Ne 997.684031 -Nl AGT -Nw --- -Ma 0 -Md 1000000 -Ms 0 -Mt 0 -Is 1.0 -Id -1.0 -It udp -Il 1 -If 0 -Ii 10 -Iv 32 
r -t 142.695516454 -Hs 1 -Hd -2 -Ni 1 -Nx 28.66 -Ny 99.40 -Nz 0.00 -Ne 997.684031 -Nl RTR -Nw --- -Ma 0 -Md 1000000 -Ms 0 -Mt 0 -Is 1.0 -Id -1.0 -It udp -Il 1 -If 0 -Ii 10 -Iv 32 
s -t 142.695516454 -Hs 1 -Hd -2 -Ni 1 -Nx 28.66 -Ny 99.40 -Nz 0.00 -Ne 997.684031 -Nl RTR -Nw --- -Ma 0 -Md 1000000 -Ms 0 -Mt 0 -Is 1.0 -Id -1.0 -It udp -Il 1 -If 0 -Ii 10 -Iv 32 
s -t 142.695541454 -Hs 1 -Hd -2 -Ni 1 -Nx 28.66 -Ny 99.40 -Nz 0.00 -Ne 997.684031 -Nl MAC -Nw --- -Ma 0 -Md 1000000 -Ms 8 -Mt 0 -Is 1.0 -Id -1.0 -It udp -Il 21 -If 0 -Ii 10 -Iv 32 
N -t 142.695542 -n 5 -e 997.684031
N -t 142.695542 -n 3 -e 997.684031
N -t 142.695542 -n 0 -e 99.999520
N -t 142.695542 -n 2 -e 997.684033
N -t 142.695542 -n 4 -e 997.684031
r -t 142.695625765 -Hs 4 -Hd -2 -Ni 4 -Nx 54.02 -Ny 9.52 -Nz 0.00 -Ne 997.684031 -Nl MAC -Nw --- -Ma 0 -Md 1000000 -Ms 8 -Mt 0 -Is 1.0 -Id -1.0 -It udp -Il 1 -If 0 -Ii 10 -Iv 32 
r -t 142.695650765 -Hs 4 -Hd -2 -Ni 4 -Nx 54.02 -Ny 9.52 -Nz 0.00 -Ne 997.684031 -Nl RTR -Nw --- -Ma 0 -Md 1000000 -Ms 8 -Mt 0 -Is 1.0 -Id -1.0 -It udp -Il 1 -If 0 -Ii 10 -Iv 32 
r -t 142.695650765 -Hs 4 -Hd -2 -Ni 4 -Nx 54.02 -Ny 9.52 -Nz 0.00 -Ne 997.684031 -Nl AGT -Nw --- -Ma 0 -Md 1000000 -Ms 8 -Mt 0 -Is 1.0 -Id -1.0 -It udp -Il 1 -If 0 -Ii 10 -Iv 32 
s -t 210.852178227 -Hs 1 -Hd -2 -Ni 1 -Nx 28.66 -Ny 99.40 -Nz 0.00 -Ne 996.576431 -Nl AGT -Nw --- -Ma 0 -Md 1000000 -Ms 0 -Mt 0 -Is 1.0 -Id -1.0 -It tcp -Il 0 -If 0 -Ii 11 -Iv 32 -Pn tcp -Ps 0 -Pa 0 -Pf 0 -Po 0 