V -t * -v 1.0a5 -a 0
A -t * -n 1 -p 0 -o 0x7fffffff -c 30 -a 1
A -t * -h 1 -m 1073741823 -s 0
+ -t 0.099454572 -s 1 -d -1 -p tcp -e 0 -c 2 -a 0 -i 0 -k AGT 
- -t 0.099454572 -s 1 -d -1 -p tcp -e 0 -c 2 -a 0 -i 0 -k AGT
h -t 0.099454572 -s 1 -d -1 -p tcp -e 0 -c 2 -a 0 -i 0 -k AGT
r -t 0.099454572 -s 1 -d -1 -p tcp -e 0 -c 2 -a 0 -i 0 -k RTR
+ -t 0.099454572 -s 1 -d -1 -p tcp -e 0 -c 2 -a 0 -i 0 -k RTR 
- -t 0.099454572 -s 1 -d -1 -p tcp -e 0 -c 2 -a 0 -i 0 -k RTR
h -t 0.099454572 -s 1 -d -1 -p tcp -e 0 -c 2 -a 0 -i 0 -k RTR
+ -t 0.099479572 -s 1 -d -1 -p tcp -e 20 -c 2 -a 0 -i 0 -k MAC 
- -t 0.099479572 -s 1 -d -1 -p tcp -e 20 -c 2 -a 0 -i 0 -k MAC
h -t 0.099479572 -s 1 -d -1 -p tcp -e 20 -c 2 -a 0 -i 0 -k MAC
r -t 0.099559662 -s 4 -d -1 -p tcp -e 0 -c 2 -a 0 -i 0 -k MAC
r -t 0.099559730 -s 3 -d -1 -p tcp -e 0 -c 2 -a 0 -i 0 -k MAC
r -t 0.099559774 -s 5 -d -1 -p tcp -e 0 -c 2 -a 0 -i 0 -k MAC
r -t 0.099559843 -s 2 -d -1 -p tcp -e 0 -c 2 -a 0 -i 0 -k MAC
r -t 0.099559873 -s 0 -d -1 -p tcp -e 0 -c 2 -a 0 -i 0 -k MAC
r -t 0.099584662 -s 4 -d -1 -p tcp -e 0 -c 2 -a 0 -i 0 -k RTR
r -t 0.099584662 -s 4 -d -1 -p tcp -e 0 -c 2 -a 0 -i 0 -k AGT
r -t 0.099584730 -s 3 -d -1 -p tcp -e 0 -c 2 -a 0 -i 0 -k RTR
r -t 0.099584730 -s 3 -d -1 -p tcp -e 0 -c 2 -a 0 -i 0 -k AGT
r -t 0.099584774 -s 5 -d -1 -p tcp -e 0 -c 2 -a 0 -i 0 -k RTR
r -t 0.099584774 -s 5 -d -1 -p tcp -e 0 -c 2 -a 0 -i 0 -k AGT
r -t 0.099584843 -s 2 -d -1 -p tcp -e 0 -c 2 -a 0 -i 0 -k RTR
r -t 0.099584843 -s 2 -d -1 -p tcp -e 0 -c 2 -a 0 -i 0 -k AGT
r -t 0.099584873 -s 0 -d -1 -p tcp -e 0 -c 2 -a 0 -i 0 -k RTR
r -t 0.099584873 -s 0 -d -1 -p tcp -e 0 -c 2 -a 0 -i 0 -k AGT
+ -t 0.353584234 -s 4 -d -1 -p tcp -e 0 -c 2 -a 0 -i 1 -k AGT 
- -t 0.353584234 -s 4 -d -1 -p tcp -e 0 -c 2 -a 0 -i 1 -k AGT
h -t 0.353584234 -s 4 -d -1 -p tcp -e 0 -c 2 -a 0 -i 1 -k AGT
r -t 0.353584234 -s 4 -d -1 -p tcp -e 0 -c 2 -a 0 -i 1 -k RTR
+ -t 0.353584234 -s 4 -d -1 -p tcp -e 0 -c 2 -a 0 -i 1 -k RTR 
- -t 0.353584234 -s 4 -d -1 -p tcp -e 0 -c 2 -a 0 -i 1 -k RTR
h -t 0.353584234 -s 4 -d -1 -p tcp -e 0 -c 2 -a 0 -i 1 -k RTR
+ -t 0.353609234 -s 4 -d -1 -p tcp -e 20 -c 2 -a 0 -i 1 -k MAC 
- -t 0.353609234 -s 4 -d -1 -p tcp -e 20 -c 2 -a 0 -i 1 -k MAC
h -t 0.353609234 -s 4 -d -1 -p tcp -e 20 -c 2 -a 0 -i 1 -k MAC
r -t 0.353689302 -s 3 -d -1 -p tcp -e 0 -c 2 -a 0 -i 1 -k MAC
r -t 0.353689324 -s 1 -d -1 -p tcp -e 0 -c 2 -a 0 -i 1 -k MAC
r -t 0.353689417 -s 2 -d -1 -p tcp -e 0 -c 2 -a 0 -i 1 -k MAC
r -t 0.353689426 -s 5 -d -1 -p tcp -e 0 -c 2 -a 0 -i 1 -k MAC
r -t 0.353689461 -s 0 -d -1 -p tcp -e 0 -c 2 -a 0 -i 1 -k MAC
r -t 0.353714302 -s 3 -d -1 -p tcp -e 0 -c 2 -a 0 -i 1 -k RTR
r -t 0.353714302 -s 3 -d -1 -p tcp -e 0 -c 2 -a 0 -i 1 -k AGT
r -t 0.353714324 -s 1 -d -1 -p tcp -e 0 -c 2 -a 0 -i 1 -k RTR
r -t 0.353714324 -s 1 -d -1 -p tcp -e 0 -c 2 -a 0 -i 1 -k AGT
r -t 0.353714417 -s 2 -d -1 -p tcp -e 0 -c 2 -a 0 -i 1 -k RTR
r -t 0.353714417 -s 2 -d -1 -p tcp -e 0 -c 2 -a 0 -i 1 -k AGT
r -t 0.353714426 -s 5 -d -1 -p tcp -e 0 -c 2 -a 0 -i 1 -k RTR
r -t 0.353714426 -s 5 -d -1 -p tcp -e 0 -c 2 -a 0 -i 1 -k AGT
r -t 0.353714461 -s 0 -d -1 -p tcp -e 0 -c 2 -a 0 -i 1 -k RTR
r -t 0.353714461 -s 0 -d -1 -p tcp -e 0 -c 2 -a 0 -i 1 -k AGT
+ -t 0.461864811 -s 3 -d -1 -p tcp -e 0 -c 2 -a 0 -i 2 -k AGT 
- -t 0.461864811 -s 3 -d -1 -p tcp -e 0 -c 2 -a 0 -i 2 -k AGT
h -t 0.461864811 -s 3 -d -1 -p tcp -e 0 -c 2 -a 0 -i 2 -k AGT
r -t 0.461864811 -s 3 -d -1 -p tcp -e 0 -c 2 -a 0 -i 2 -k RTR
+ -t 0.461864811 -s 3 -d -1 -p tcp -e 0 -c 2 -a 0 -i 2 -k RTR 
- -t 0.461864811 -s 3 -d -1 -p tcp -e 0 -c 2 -a 0 -i 2 -k RTR
h -t 0.461864811 -s 3 -d -1 -p tcp -e 0 -c 2 -a 0 -i 2 -k RTR
+ -t 0.461889811 -s 3 -d -1 -p tcp -e 20 -c 2 -a 0 -i 2 -k MAC 
- -t 0.461889811 -s 3 -d -1 -p tcp -e 20 -c 2 -a 0 -i 2 -k MAC
h -t 0.461889811 -s 3 -d -1 -p tcp -e 20 -c 2 -a 0 -i 2 -k MAC
r -t 0.461969879 -s 4 -d -1 -p tcp -e 0 -c 2 -a 0 -i 2 -k MAC
r -t 0.461969928 -s 2 -d -1 -p tcp -e 0 -c 2 -a 0 -i 2 -k MAC
r -t 0.461969969 -s 1 -d -1 -p tcp -e 0 -c 2 -a 0 -i 2 -k MAC
r -t 0.461969986 -s 0 -d -1 -p tcp -e 0 -c 2 -a 0 -i 2 -k MAC
r -t 0.461970016 -s 5 -d -1 -p tcp -e 0 -c 2 -a 0 -i 2 -k MAC
r -t 0.461994879 -s 4 -d -1 -p tcp -e 0 -c 2 -a 0 -i 2 -k RTR
r -t 0.461994879 -s 4 -d -1 -p tcp -e 0 -c 2 -a 0 -i 2 -k AGT
r -t 0.461994928 -s 2 -d -1 -p tcp -e 0 -c 2 -a 0 -i 2 -k RTR
r -t 0.461994928 -s 2 -d -1 -p tcp -e 0 -c 2 -a 0 -i 2 -k AGT
r -t 0.461994969 -s 1 -d -1 -p tcp -e 0 -c 2 -a 0 -i 2 -k RTR
r -t 0.461994969 -s 1 -d -1 -p tcp -e 0 -c 2 -a 0 -i 2 -k AGT
r -t 0.461994986 -s 0 -d -1 -p tcp -e 0 -c 2 -a 0 -i 2 -k RTR
r -t 0.461994986 -s 0 -d -1 -p tcp -e 0 -c 2 -a 0 -i 2 -k AGT
r -t 0.461995016 -s 5 -d -1 -p tcp -e 0 -c 2 -a 0 -i 2 -k RTR
r -t 0.461995016 -s 5 -d -1 -p tcp -e 0 -c 2 -a 0 -i 2 -k AGT
+ -t 1.269745997 -s 2 -d -1 -p udp -e 2 -c 2 -a 0 -i 3 -k AGT 
- -t 1.269745997 -s 2 -d -1 -p udp -e 2 -c 2 -a 0 -i 3 -k AGT
h -t 1.269745997 -s 2 -d -1 -p udp -e 2 -c 2 -a 0 -i 3 -k AGT
r -t 1.269745997 -s 2 -d -1 -p udp -e 2 -c 2 -a 0 -i 3 -k RTR
+ -t 1.269745997 -s 2 -d -1 -p udp -e 2 -c 2 -a 0 -i 3 -k RTR 
- -t 1.269745997 -s 2 -d -1 -p udp -e 2 -c 2 -a 0 -i 3 -k RTR
h -t 1.269745997 -s 2 -d -1 -p udp -e 2 -c 2 -a 0 -i 3 -k RTR
+ -t 1.269770997 -s 2 -d -1 -p udp -e 22 -c 2 -a 0 -i 3 -k MAC 
- -t 1.269770997 -s 2 -d -1 -p udp -e 22 -c 2 -a 0 -i 3 -k MAC
h -t 1.269770997 -s 2 -d -1 -p udp -e 22 -c 2 -a 0 -i 3 -k MAC
r -t 1.269859113 -s 3 -d -1 -p udp -e 2 -c 2 -a 0 -i 3 -k MAC
r -t 1.269884113 -s 3 -d -1 -p udp -e 2 -c 2 -a 0 -i 3 -k RTR
r -t 1.269884113 -s 3 -d -1 -p udp -e 2 -c 2 -a 0 -i 3 -k AGT
+ -t 1.914889623 -s 3 -d -1 -p cbr -e 2 -c 2 -a 0 -i 4 -k AGT 
- -t 1.914889623 -s 3 -d -1 -p cbr -e 2 -c 2 -a 0 -i 4 -k AGT
h -t 1.914889623 -s 3 -d -1 -p cbr -e 2 -c 2 -a 0 -i 4 -k AGT
r -t 1.914889623 -s 3 -d -1 -p cbr -e 2 -c 2 -a 0 -i 4 -k RTR
+ -t 1.914889623 -s 3 -d -1 -p cbr -e 2 -c 2 -a 0 -i 4 -k RTR 
- -t 1.914889623 -s 3 -d -1 -p cbr -e 2 -c 2 -a 0 -i 4 -k RTR
h -t 1.914889623 -s 3 -d -1 -p cbr -e 2 -c 2 -a 0 -i 4 -k RTR
+ -t 1.914914623 -s 3 -d -1 -p cbr -e 22 -c 2 -a 0 -i 4 -k MAC 
- -t 1.914914623 -s 3 -d -1 -p cbr -e 22 -c 2 -a 0 -i 4 -k MAC
h -t 1.914914623 -s 3 -d -1 -p cbr -e 22 -c 2 -a 0 -i 4 -k MAC
r -t 1.915002691 -s 4 -d -1 -p cbr -e 2 -c 2 -a 0 -i 4 -k MAC
r -t 1.915002739 -s 2 -d -1 -p cbr -e 2 -c 2 -a 0 -i 4 -k MAC
r -t 1.915002781 -s 1 -d -1 -p cbr -e 2 -c 2 -a 0 -i 4 -k MAC
r -t 1.915002798 -s 0 -d -1 -p cbr -e 2 -c 2 -a 0 -i 4 -k MAC
r -t 1.915002827 -s 5 -d -1 -p cbr -e 2 -c 2 -a 0 -i 4 -k MAC
r -t 1.915027691 -s 4 -d -1 -p cbr -e 2 -c 2 -a 0 -i 4 -k RTR
r -t 1.915027691 -s 4 -d -1 -p cbr -e 2 -c 2 -a 0 -i 4 -k AGT
r -t 1.915027739 -s 2 -d -1 -p cbr -e 2 -c 2 -a 0 -i 4 -k RTR
r -t 1.915027739 -s 2 -d -1 -p cbr -e 2 -c 2 -a 0 -i 4 -k AGT
r -t 1.915027781 -s 1 -d -1 -p cbr -e 2 -c 2 -a 0 -i 4 -k RTR
r -t 1.915027781 -s 1 -d -1 -p cbr -e 2 -c 2 -a 0 -i 4 -k AGT
r -t 1.915027798 -s 0 -d -1 -p cbr -e 2 -c 2 -a 0 -i 4 -k RTR
r -t 1.915027798 -s 0 -d -1 -p cbr -e 2 -c 2 -a 0 -i 4 -k AGT
r -t 1.915027827 -s 5 -d -1 -p cbr -e 2 -c 2 -a 0 -i 4 -k RTR
r -t 1.915027827 -s 5 -d -1 -p cbr -e 2 -c 2 -a 0 -i 4 -k AGT
+ -t 2.776532826 -s 5 -d -1 -p udp -e 5 -c 2 -a 0 -i 5 -k AGT 
- -t 2.776532826 -s 5 -d -1 -p udp -e 5 -c 2 -a 0 -i 5 -k AGT
h -t 2.776532826 -s 5 -d -1 -p udp -e 5 -c 2 -a 0 -i 5 -k AGT
r -t 2.776532826 -s 5 -d -1 -p udp -e 5 -c 2 -a 0 -i 5 -k RTR
+ -t 2.776532826 -s 5 -d -1 -p udp -e 5 -c 2 -a 0 -i 5 -k RTR 
- -t 2.776532826 -s 5 -d -1 -p udp -e 5 -c 2 -a 0 -i 5 -k RTR
h -t 2.776532826 -s 5 -d -1 -p udp -e 5 -c 2 -a 0 -i 5 -k RTR
+ -t 2.776557826 -s 5 -d -1 -p udp -e 25 -c 2 -a 0 -i 5 -k MAC 
- -t 2.776557826 -s 5 -d -1 -p udp -e 25 -c 2 -a 0 -i 5 -k MAC
h -t 2.776557826 -s 5 -d -1 -p udp -e 25 -c 2 -a 0 -i 5 -k MAC
r -t 2.776658019 -s 4 -d -1 -p udp -e 5 -c 2 -a 0 -i 5 -k MAC
r -t 2.776683019 -s 4 -d -1 -p udp -e 5 -c 2 -a 0 -i 5 -k RTR
r -t 2.776683019 -s 4 -d -1 -p udp -e 5 -c 2 -a 0 -i 5 -k AGT
+ -t 10.130227739 -s 2 -d -1 -p audio -e -1597116448 -c 2 -a 0 -i 21984 -k AGT 
- -t 10.130227739 -s 2 -d -1 -p audio -e -1597116448 -c 2 -a 0 -i 21984 -k AGT
h -t 10.130227739 -s 2 -d -1 -p audio -e -1597116448 -c 2 -a 0 -i 21984 -k AGT
+ -t 10.130227739 -s 2 -d -1 -p audio -e -1597116448 -c 2 -a 0 -i 21984 -k RTR 
- -t 10.130227739 -s 2 -d -1 -p audio -e -1597116448 -c 2 -a 0 -i 21984 -k RTR
h -t 10.130227739 -s 2 -d -1 -p audio -e -1597116448 -c 2 -a 0 -i 21984 -k RTR
+ -t 10.130252739 -s 2 -d -1 -p audio -e -1597116428 -c 2 -a 0 -i 21984 -k MAC 
- -t 10.130252739 -s 2 -d -1 -p audio -e -1597116428 -c 2 -a 0 -i 21984 -k MAC
h -t 10.130252739 -s 2 -d -1 -p audio -e -1597116428 -c 2 -a 0 -i 21984 -k MAC
+ -t 20.159827739 -s 2 -d -1 -p audio -e -1597116448 -c 2 -a 0 -i 21984 -k AGT 
- -t 20.159827739 -s 2 -d -1 -p audio -e -1597116448 -c 2 -a 0 -i 21984 -k AGT
n -t 20.159827739 -s 2 -S COLOR -c black -o red
h -t 20.159827739 -s 2 -d -1 -p audio -e -1597116448 -c 2 -a 0 -i 21984 -k AGT
+ -t 20.159827739 -s 2 -d -1 -p audio -e -1597116448 -c 2 -a 0 -i 21984 -k RTR 
- -t 20.159827739 -s 2 -d -1 -p audio -e -1597116448 -c 2 -a 0 -i 21984 -k RTR
n -t 20.159827739 -s 2 -S COLOR -c black -o red
h -t 20.159827739 -s 2 -d -1 -p audio -e -1597116448 -c 2 -a 0 -i 21984 -k RTR
+ -t 30.139027739 -s 2 -d -1 -p audio -e -1597116448 -c 2 -a 0 -i 21984 -k AGT 
- -t 30.139027739 -s 2 -d -1 -p audio -e -1597116448 -c 2 -a 0 -i 21984 -k AGT
h -t 30.139027739 -s 2 -d -1 -p audio -e -1597116448 -c 2 -a 0 -i 21984 -k AGT
+ -t 30.139027739 -s 2 -d -1 -p audio -e -1597116448 -c 2 -a 0 -i 21984 -k RTR 
- -t 30.139027739 -s 2 -d -1 -p audio -e -1597116448 -c 2 -a 0 -i 21984 -k RTR
h -t 30.139027739 -s 2 -d -1 -p audio -e -1597116448 -c 2 -a 0 -i 21984 -k RTR
+ -t 40.168627739 -s 2 -d -1 -p audio -e -1597116448 -c 2 -a 0 -i 21984 -k AGT 
- -t 40.168627739 -s 2 -d -1 -p audio -e -1597116448 -c 2 -a 0 -i 21984 -k AGT
h -t 40.168627739 -s 2 -d -1 -p audio -e -1597116448 -c 2 -a 0 -i 21984 -k AGT
+ -t 40.168627739 -s 2 -d -1 -p audio -e -1597116448 -c 2 -a 0 -i 21984 -k RTR 
- -t 40.168627739 -s 2 -d -1 -p audio -e -1597116448 -c 2 -a 0 -i 21984 -k RTR
h -t 40.168627739 -s 2 -d -1 -p audio -e -1597116448 -c 2 -a 0 -i 21984 -k RTR
+ -t 50.147827739 -s 2 -d -1 -p audio -e -1597116448 -c 2 -a 0 -i 21984 -k AGT 
- -t 50.147827739 -s 2 -d -1 -p audio -e -1597116448 -c 2 -a 0 -i 21984 -k AGT
h -t 50.147827739 -s 2 -d -1 -p audio -e -1597116448 -c 2 -a 0 -i 21984 -k AGT
+ -t 50.147827739 -s 2 -d -1 -p audio -e -1597116448 -c 2 -a 0 -i 21984 -k RTR 
- -t 50.147827739 -s 2 -d -1 -p audio -e -1597116448 -c 2 -a 0 -i 21984 -k RTR
h -t 50.147827739 -s 2 -d -1 -p audio -e -1597116448 -c 2 -a 0 -i 21984 -k RTR
+ -t 60.177427739 -s 2 -d -1 -p audio -e -1597116448 -c 2 -a 0 -i 21984 -k AGT 
- -t 60.177427739 -s 2 -d -1 -p audio -e -1597116448 -c 2 -a 0 -i 21984 -k AGT
h -t 60.177427739 -s 2 -d -1 -p audio -e -1597116448 -c 2 -a 0 -i 21984 -k AGT
+ -t 60.177427739 -s 2 -d -1 -p audio -e -1597116448 -c 2 -a 0 -i 21984 -k RTR 
- -t 60.177427739 -s 2 -d -1 -p audio -e -1597116448 -c 2 -a 0 -i 21984 -k RTR
h -t 60.177427739 -s 2 -d -1 -p audio -e -1597116448 -c 2 -a 0 -i 21984 -k RTR
r -t 64.115484855 -s 3 -d -1 -p audio -e -1597116448 -c 2 -a 0 -i 21984 -k MAC
+ -t 74.145084739 -s 2 -d -1 -p audio -e -1597116428 -c 2 -a 0 -i 21984 -k MAC 
- -t 74.145084739 -s 2 -d -1 -p audio -e -1597116428 -c 2 -a 0 -i 21984 -k MAC
n -t 74.145084739 -s 2 -S COLOR -c black -o red
h -t 74.145084739 -s 2 -d -1 -p audio -e -1597116428 -c 2 -a 0 -i 21984 -k MAC
+ -t 128.130316739 -s 2 -d -1 -p audio -e -1597116428 -c 2 -a 0 -i 21984 -k MAC 
- -t 128.130316739 -s 2 -d -1 -p audio -e -1597116428 -c 2 -a 0 -i 21984 -k MAC
h -t 128.130316739 -s 2 -d -1 -p audio -e -1597116428 -c 2 -a 0 -i 21984 -k MAC
r -t 128.130316855 -s 3 -d -1 -p audio -e -1597116448 -c 2 -a 0 -i 21984 -k MAC
+ -t 182.115548739 -s 2 -d -1 -p audio -e -1597116428 -c 2 -a 0 -i 21984 -k MAC 
- -t 182.115548739 -s 2 -d -1 -p audio -e -1597116428 -c 2 -a 0 -i 21984 -k MAC
h -t 182.115548739 -s 2 -d -1 -p audio -e -1597116428 -c 2 -a 0 -i 21984 -k MAC
r -t 182.115548855 -s 3 -d -1 -p audio -e -1597116448 -c 2 -a 0 -i 21984 -k MAC
+ -t 236.100780739 -s 2 -d -1 -p audio -e -1597116428 -c 2 -a 0 -i 21984 -k MAC 
- -t 236.100780739 -s 2 -d -1 -p audio -e -1597116428 -c 2 -a 0 -i 21984 -k MAC
h -t 236.100780739 -s 2 -d -1 -p audio -e -1597116428 -c 2 -a 0 -i 21984 -k MAC
r -t 236.100780855 -s 3 -d -1 -p audio -e -1597116448 -c 2 -a 0 -i 21984 -k MAC
+ -t 280.892686413 -s 5 -d -1 -p tcp -e 0 -c 2 -a 0 -i 12 -k AGT 
- -t 280.892686413 -s 5 -d -1 -p tcp -e 0 -c 2 -a 0 -i 12 -k AGT
h -t 280.892686413 -s 5 -d -1 -p tcp -e 0 -c 2 -a 0 -i 12 -k AGT
r -t 280.892686413 -s 5 -d -1 -p tcp -e 0 -c 2 -a 0 -i 12 -k RTR
+ -t 280.892686413 -s 5 -d -1 -p tcp -e 0 -c 2 -a 0 -i 12 -k RTR 
- -t 280.892686413 -s 5 -d -1 -p tcp -e 0 -c 2 -a 0 -i 12 -k RTR
h -t 280.892686413 -s 5 -d -1 -p tcp -e 0 -c 2 -a 0 -i 12 -k RTR
+ -t 290.086012739 -s 2 -d -1 -p audio -e -1597116428 -c 2 -a 0 -i 21984 -k MAC 
- -t 290.086012739 -s 2 -d -1 -p audio -e -1597116428 -c 2 -a 0 -i 21984 -k MAC
h -t 290.086012739 -s 2 -d -1 -p audio -e -1597116428 -c 2 -a 0 -i 21984 -k MAC
r -t 290.086012855 -s 3 -d -1 -p audio -e -1597116448 -c 2 -a 0 -i 21984 -k MAC
r -t 344.071244855 -s 3 -d -1 -p audio -e -1597116448 -c 2 -a 0 -i 21984 -k MAC
+ -t 344.071271433 -s 5 -d -1 -p tcp -e 20 -c 2 -a 0 -i 12 -k MAC 
- -t 344.071271433 -s 5 -d -1 -p tcp -e 20 -c 2 -a 0 -i 12 -k MAC
h -t 344.071271433 -s 5 -d -1 -p tcp -e 20 -c 2 -a 0 -i 12 -k MAC
r -t 344.071351626 -s 4 -d -1 -p tcp -e 0 -c 2 -a 0 -i 12 -k MAC
r -t 344.071351635 -s 1 -d -1 -p tcp -e 0 -c 2 -a 0 -i 12 -k MAC
r -t 344.071351637 -s 3 -d -1 -p tcp -e 0 -c 2 -a 0 -i 12 -k MAC
n -t 344.071351679 -s 2 -S COLOR -c black -o red
r -t 344.071351679 -s 2 -d -1 -p tcp -e 0 -c 2 -a 0 -i 12 -k MAC
r -t 344.071376626 -s 4 -d -1 -p tcp -e 0 -c 2 -a 0 -i 12 -k RTR
r -t 344.071376626 -s 4 -d -1 -p tcp -e 0 -c 2 -a 0 -i 12 -k AGT
r -t 344.071376635 -s 1 -d -1 -p tcp -e 0 -c 2 -a 0 -i 12 -k RTR
r -t 344.071376635 -s 1 -d -1 -p tcp -e 0 -c 2 -a 0 -i 12 -k AGT
r -t 344.071376637 -s 3 -d -1 -p tcp -e 0 -c 2 -a 0 -i 12 -k RTR
r -t 344.071376637 -s 3 -d -1 -p tcp -e 0 -c 2 -a 0 -i 12 -k AGT
n -t 344.071376679 -s 2 -S COLOR -c black -o red
r -t 344.071376679 -s 2 -d -1 -p tcp -e 0 -c 2 -a 0 -i 12 -k RTR
n -t 344.071376679 -s 2 -S COLOR -c black -o red
r -t 344.071376679 -s 2 -d -1 -p tcp -e 0 -c 2 -a 0 -i 12 -k AGT
+ -t 420.139292999 -s 2 -d -1 -p tcp -e 0 -c 2 -a 0 -i 13 -k AGT 
- -t 420.139292999 -s 2 -d -1 -p tcp -e 0 -c 2 -a 0 -i 13 -k AGT
h -t 420.139292999 -s 2 -d -1 -p tcp -e 0 -c 2 -a 0 -i 13 -k AGT
r -t 420.139292999 -s 2 -d -1 -p tcp -e 0 -c 2 -a 0 -i 13 -k RTR
+ -t 420.139292999 -s 2 -d -1 -p tcp -e 0 -c 2 -a 0 -i 13 -k RTR 
- -t 420.139292999 -s 2 -d -1 -p tcp -e 0 -c 2 -a 0 -i 13 -k RTR
h -t 420.139292999 -s 2 -d -1 -p tcp -e 0 -c 2 -a 0 -i 13 -k RTR
+ -t 420.139317999 -s 2 -d -1 -p tcp -e 20 -c 2 -a 0 -i 13 -k MAC 
- -t 420.139317999 -s 2 -d -1 -p tcp -e 20 -c 2 -a 0 -i 13 -k MAC
h -t 420.139317999 -s 2 -d -1 -p tcp -e 20 -c 2 -a 0 -i 13 -k MAC
r -t 420.139398115 -s 3 -d -1 -p tcp -e 0 -c 2 -a 0 -i 13 -k MAC
r -t 420.139398182 -s 4 -d -1 -p tcp -e 0 -c 2 -a 0 -i 13 -k MAC
r -t 420.139398245 -s 5 -d -1 -p tcp -e 0 -c 2 -a 0 -i 13 -k MAC
r -t 420.139398270 -s 1 -d -1 -p tcp -e 0 -c 2 -a 0 -i 13 -k MAC
r -t 420.139423115 -s 3 -d -1 -p tcp -e 0 -c 2 -a 0 -i 13 -k RTR
r -t 420.139423115 -s 3 -d -1 -p tcp -e 0 -c 2 -a 0 -i 13 -k AGT
r -t 420.139423182 -s 4 -d -1 -p tcp -e 0 -c 2 -a 0 -i 13 -k RTR
r -t 420.139423182 -s 4 -d -1 -p tcp -e 0 -c 2 -a 0 -i 13 -k AGT
r -t 420.139423245 -s 5 -d -1 -p tcp -e 0 -c 2 -a 0 -i 13 -k RTR
r -t 420.139423245 -s 5 -d -1 -p tcp -e 0 -c 2 -a 0 -i 13 -k AGT
r -t 420.139423270 -s 1 -d -1 -p tcp -e 0 -c 2 -a 0 -i 13 -k RTR
r -t 420.139423270 -s 1 -d -1 -p tcp -e 0 -c 2 -a 0 -i 13 -k AGT
+ -t 421.190069144 -s 1 -d -1 -p udp -e 1 -c 2 -a 0 -i 14 -k AGT 
- -t 421.190069144 -s 1 -d -1 -p udp -e 1 -c 2 -a 0 -i 14 -k AGT
h -t 421.190069144 -s 1 -d -1 -p udp -e 1 -c 2 -a 0 -i 14 -k AGT
r -t 421.190069144 -s 1 -d -1 -p udp -e 1 -c 2 -a 0 -i 14 -k RTR
+ -t 421.190069144 -s 1 -d -1 -p udp -e 1 -c 2 -a 0 -i 14 -k RTR 
- -t 421.190069144 -s 1 -d -1 -p udp -e 1 -c 2 -a 0 -i 14 -k RTR
h -t 421.190069144 -s 1 -d -1 -p udp -e 1 -c 2 -a 0 -i 14 -k RTR
+ -t 421.190094144 -s 1 -d -1 -p udp -e 21 -c 2 -a 0 -i 14 -k MAC 
- -t 421.190094144 -s 1 -d -1 -p udp -e 21 -c 2 -a 0 -i 14 -k MAC
h -t 421.190094144 -s 1 -d -1 -p udp -e 21 -c 2 -a 0 -i 14 -k MAC
r -t 421.190178346 -s 5 -d -1 -p udp -e 1 -c 2 -a 0 -i 14 -k MAC
r -t 421.190203346 -s 5 -d -1 -p udp -e 1 -c 2 -a 0 -i 14 -k RTR
r -t 421.190203346 -s 5 -d -1 -p udp -e 1 -c 2 -a 0 -i 14 -k AGT
+ -t 421.698328467 -s 4 -d -1 -p udp -e 4 -c 2 -a 0 -i 15 -k AGT 
- -t 421.698328467 -s 4 -d -1 -p udp -e 4 -c 2 -a 0 -i 15 -k AGT
h -t 421.698328467 -s 4 -d -1 -p udp -e 4 -c 2 -a 0 -i 15 -k AGT
r -t 421.698328467 -s 4 -d -1 -p udp -e 4 -c 2 -a 0 -i 15 -k RTR
+ -t 421.698328467 -s 4 -d -1 -p udp -e 4 -c 2 -a 0 -i 15 -k RTR 
- -t 421.698328467 -s 4 -d -1 -p udp -e 4 -c 2 -a 0 -i 15 -k RTR
h -t 421.698328467 -s 4 -d -1 -p udp -e 4 -c 2 -a 0 -i 15 -k RTR
+ -t 421.698353467 -s 4 -d -1 -p udp -e 24 -c 2 -a 0 -i 15 -k MAC 
- -t 421.698353467 -s 4 -d -1 -p udp -e 24 -c 2 -a 0 -i 15 -k MAC
h -t 421.698353467 -s 4 -d -1 -p udp -e 24 -c 2 -a 0 -i 15 -k MAC
r -t 421.698449651 -s 2 -d -1 -p udp -e 4 -c 2 -a 0 -i 15 -k MAC
r -t 421.698474651 -s 2 -d -1 -p udp -e 4 -c 2 -a 0 -i 15 -k RTR
r -t 421.698474651 -s 2 -d -1 -p udp -e 4 -c 2 -a 0 -i 15 -k AGT
+ -t 421.914889623 -s 3 -d -1 -p udp -e 3 -c 2 -a 0 -i 16 -k AGT 
- -t 421.914889623 -s 3 -d -1 -p udp -e 3 -c 2 -a 0 -i 16 -k AGT
h -t 421.914889623 -s 3 -d -1 -p udp -e 3 -c 2 -a 0 -i 16 -k AGT
r -t 421.914889623 -s 3 -d -1 -p udp -e 3 -c 2 -a 0 -i 16 -k RTR
+ -t 421.914889623 -s 3 -d -1 -p udp -e 3 -c 2 -a 0 -i 16 -k RTR 
- -t 421.914889623 -s 3 -d -1 -p udp -e 3 -c 2 -a 0 -i 16 -k RTR
h -t 421.914889623 -s 3 -d -1 -p udp -e 3 -c 2 -a 0 -i 16 -k RTR
+ -t 421.914914623 -s 3 -d -1 -p udp -e 23 -c 2 -a 0 -i 16 -k MAC 
- -t 421.914914623 -s 3 -d -1 -p udp -e 23 -c 2 -a 0 -i 16 -k MAC
h -t 421.914914623 -s 3 -d -1 -p udp -e 23 -c 2 -a 0 -i 16 -k MAC
r -t 421.915006739 -s 2 -d -1 -p udp -e 3 -c 2 -a 0 -i 16 -k MAC
r -t 421.915031739 -s 2 -d -1 -p udp -e 3 -c 2 -a 0 -i 16 -k RTR
r -t 421.915031739 -s 2 -d -1 -p udp -e 3 -c 2 -a 0 -i 16 -k AGT
+ -t 422.776532826 -s 5 -d -1 -p udp -e 5 -c 2 -a 0 -i 17 -k AGT 
- -t 422.776532826 -s 5 -d -1 -p udp -e 5 -c 2 -a 0 -i 17 -k AGT
h -t 422.776532826 -s 5 -d -1 -p udp -e 5 -c 2 -a 0 -i 17 -k AGT
r -t 422.776532826 -s 5 -d -1 -p udp -e 5 -c 2 -a 0 -i 17 -k RTR
+ -t 422.776532826 -s 5 -d -1 -p udp -e 5 -c 2 -a 0 -i 17 -k RTR 
- -t 422.776532826 -s 5 -d -1 -p udp -e 5 -c 2 -a 0 -i 17 -k RTR
h -t 422.776532826 -s 5 -d -1 -p udp -e 5 -c 2 -a 0 -i 17 -k RTR
+ -t 422.776557826 -s 5 -d -1 -p udp -e 25 -c 2 -a 0 -i 17 -k MAC 
- -t 422.776557826 -s 5 -d -1 -p udp -e 25 -c 2 -a 0 -i 17 -k MAC
h -t 422.776557826 -s 5 -d -1 -p udp -e 25 -c 2 -a 0 -i 17 -k MAC
r -t 422.776658072 -s 2 -d -1 -p udp -e 5 -c 2 -a 0 -i 17 -k MAC
r -t 422.776683072 -s 2 -d -1 -p udp -e 5 -c 2 -a 0 -i 17 -k RTR
r -t 422.776683072 -s 2 -d -1 -p udp -e 5 -c 2 -a 0 -i 17 -k AGT
+ -t 560.353584234 -s 4 -d -1 -p tcp -e 0 -c 2 -a 0 -i 18 -k AGT 
- -t 560.353584234 -s 4 -d -1 -p tcp -e 0 -c 2 -a 0 -i 18 -k AGT
h -t 560.353584234 -s 4 -d -1 -p tcp -e 0 -c 2 -a 0 -i 18 -k AGT
r -t 560.353584234 -s 4 -d -1 -p tcp -e 0 -c 2 -a 0 -i 18 -k RTR
+ -t 560.353584234 -s 4 -d -1 -p tcp -e 0 -c 2 -a 0 -i 18 -k RTR 
- -t 560.353584234 -s 4 -d -1 -p tcp -e 0 -c 2 -a 0 -i 18 -k RTR
h -t 560.353584234 -s 4 -d -1 -p tcp -e 0 -c 2 -a 0 -i 18 -k RTR
+ -t 560.353609234 -s 4 -d -1 -p tcp -e 20 -c 2 -a 0 -i 18 -k MAC 
- -t 560.353609234 -s 4 -d -1 -p tcp -e 20 -c 2 -a 0 -i 18 -k MAC
h -t 560.353609234 -s 4 -d -1 -p tcp -e 20 -c 2 -a 0 -i 18 -k MAC
r -t 560.353689302 -s 3 -d -1 -p tcp -e 0 -c 2 -a 0 -i 18 -k MAC
r -t 560.353689324 -s 1 -d -1 -p tcp -e 0 -c 2 -a 0 -i 18 -k MAC
r -t 560.353689417 -s 2 -d -1 -p tcp -e 0 -c 2 -a 0 -i 18 -k MAC
r -t 560.353689426 -s 5 -d -1 -p tcp -e 0 -c 2 -a 0 -i 18 -k MAC
r -t 560.353714302 -s 3 -d -1 -p tcp -e 0 -c 2 -a 0 -i 18 -k RTR
r -t 560.353714302 -s 3 -d -1 -p tcp -e 0 -c 2 -a 0 -i 18 -k AGT
r -t 560.353714324 -s 1 -d -1 -p tcp -e 0 -c 2 -a 0 -i 18 -k RTR
r -t 560.353714324 -s 1 -d -1 -p tcp -e 0 -c 2 -a 0 -i 18 -k AGT
r -t 560.353714417 -s 2 -d -1 -p tcp -e 0 -c 2 -a 0 -i 18 -k RTR
r -t 560.353714417 -s 2 -d -1 -p tcp -e 0 -c 2 -a 0 -i 18 -k AGT
r -t 560.353714426 -s 5 -d -1 -p tcp -e 0 -c 2 -a 0 -i 18 -k RTR
r -t 560.353714426 -s 5 -d -1 -p tcp -e 0 -c 2 -a 0 -i 18 -k AGT
+ -t 561.190069144 -s 1 -d -1 -p udp -e 1 -c 2 -a 0 -i 19 -k AGT 
- -t 561.190069144 -s 1 -d -1 -p udp -e 1 -c 2 -a 0 -i 19 -k AGT
h -t 561.190069144 -s 1 -d -1 -p udp -e 1 -c 2 -a 0 -i 19 -k AGT
r -t 561.190069144 -s 1 -d -1 -p udp -e 1 -c 2 -a 0 -i 19 -k RTR
+ -t 561.190069144 -s 1 -d -1 -p udp -e 1 -c 2 -a 0 -i 19 -k RTR 
- -t 561.190069144 -s 1 -d -1 -p udp -e 1 -c 2 -a 0 -i 19 -k RTR
h -t 561.190069144 -s 1 -d -1 -p udp -e 1 -c 2 -a 0 -i 19 -k RTR
+ -t 561.190094144 -s 1 -d -1 -p udp -e 21 -c 2 -a 0 -i 19 -k MAC 
- -t 561.190094144 -s 1 -d -1 -p udp -e 21 -c 2 -a 0 -i 19 -k MAC
h -t 561.190094144 -s 1 -d -1 -p udp -e 21 -c 2 -a 0 -i 19 -k MAC
r -t 561.190178234 -s 4 -d -1 -p udp -e 1 -c 2 -a 0 -i 19 -k MAC
r -t 561.190203234 -s 4 -d -1 -p udp -e 1 -c 2 -a 0 -i 19 -k RTR
r -t 561.190203234 -s 4 -d -1 -p udp -e 1 -c 2 -a 0 -i 19 -k AGT
+ -t 561.200203234 -s 4 -d -1 -p ack -e 4 -c 2 -a 0 -i 20 -k AGT 
- -t 561.200203234 -s 4 -d -1 -p ack -e 4 -c 2 -a 0 -i 20 -k AGT
h -t 561.200203234 -s 4 -d -1 -p ack -e 4 -c 2 -a 0 -i 20 -k AGT
r -t 561.200203234 -s 4 -d -1 -p ack -e 4 -c 2 -a 0 -i 20 -k RTR
+ -t 561.200203234 -s 4 -d -1 -p ack -e 4 -c 2 -a 0 -i 20 -k RTR 
- -t 561.200203234 -s 4 -d -1 -p ack -e 4 -c 2 -a 0 -i 20 -k RTR
h -t 561.200203234 -s 4 -d -1 -p ack -e 4 -c 2 -a 0 -i 20 -k RTR
+ -t 561.200228234 -s 4 -d -1 -p ack -e 24 -c 2 -a 0 -i 20 -k MAC 
- -t 561.200228234 -s 4 -d -1 -p ack -e 24 -c 2 -a 0 -i 20 -k MAC
h -t 561.200228234 -s 4 -d -1 -p ack -e 24 -c 2 -a 0 -i 20 -k MAC
r -t 561.200324302 -s 3 -d -1 -p ack -e 4 -c 2 -a 0 -i 20 -k MAC
r -t 561.200324324 -s 1 -d -1 -p ack -e 4 -c 2 -a 0 -i 20 -k MAC
r -t 561.200324417 -s 2 -d -1 -p ack -e 4 -c 2 -a 0 -i 20 -k MAC
r -t 561.200324426 -s 5 -d -1 -p ack -e 4 -c 2 -a 0 -i 20 -k MAC
r -t 561.200349302 -s 3 -d -1 -p ack -e 4 -c 2 -a 0 -i 20 -k RTR
r -t 561.200349302 -s 3 -d -1 -p ack -e 4 -c 2 -a 0 -i 20 -k AGT
r -t 561.200349324 -s 1 -d -1 -p ack -e 4 -c 2 -a 0 -i 20 -k RTR
r -t 561.200349324 -s 1 -d -1 -p ack -e 4 -c 2 -a 0 -i 20 -k AGT
+ -t 561.200349324 -s 1 -d -1 -p start -e 1 -c 2 -a 0 -i 21 -k AGT 
- -t 561.200349324 -s 1 -d -1 -p start -e 1 -c 2 -a 0 -i 21 -k AGT
h -t 561.200349324 -s 1 -d -1 -p start -e 1 -c 2 -a 0 -i 21 -k AGT
r -t 561.200349324 -s 1 -d -1 -p start -e 1 -c 2 -a 0 -i 21 -k RTR
+ -t 561.200349324 -s 1 -d -1 -p start -e 1 -c 2 -a 0 -i 21 -k RTR 
- -t 561.200349324 -s 1 -d -1 -p start -e 1 -c 2 -a 0 -i 21 -k RTR
h -t 561.200349324 -s 1 -d -1 -p start -e 1 -c 2 -a 0 -i 21 -k RTR
r -t 561.200349417 -s 2 -d -1 -p ack -e 4 -c 2 -a 0 -i 20 -k RTR
r -t 561.200349417 -s 2 -d -1 -p ack -e 4 -c 2 -a 0 -i 20 -k AGT
r -t 561.200349426 -s 5 -d -1 -p ack -e 4 -c 2 -a 0 -i 20 -k RTR
r -t 561.200349426 -s 5 -d -1 -p ack -e 4 -c 2 -a 0 -i 20 -k AGT
+ -t 561.200458324 -s 1 -d -1 -p start -e 21 -c 2 -a 0 -i 21 -k MAC 
- -t 561.200458324 -s 1 -d -1 -p start -e 21 -c 2 -a 0 -i 21 -k MAC
h -t 561.200458324 -s 1 -d -1 -p start -e 21 -c 2 -a 0 -i 21 -k MAC
r -t 561.200542414 -s 4 -d -1 -p start -e 1 -c 2 -a 0 -i 21 -k MAC
r -t 561.200567414 -s 4 -d -1 -p start -e 1 -c 2 -a 0 -i 21 -k RTR
r -t 561.200567414 -s 4 -d -1 -p start -e 1 -c 2 -a 0 -i 21 -k AGT
+ -t 561.200567414 -s 4 -d -1 -p stop -e 4 -c 2 -a 0 -i 22 -k AGT 
- -t 561.200567414 -s 4 -d -1 -p stop -e 4 -c 2 -a 0 -i 22 -k AGT
h -t 561.200567414 -s 4 -d -1 -p stop -e 4 -c 2 -a 0 -i 22 -k AGT
r -t 561.200567414 -s 4 -d -1 -p stop -e 4 -c 2 -a 0 -i 22 -k RTR
+ -t 561.200567414 -s 4 -d -1 -p stop -e 4 -c 2 -a 0 -i 22 -k RTR 
- -t 561.200567414 -s 4 -d -1 -p stop -e 4 -c 2 -a 0 -i 22 -k RTR
h -t 561.200567414 -s 4 -d -1 -p stop -e 4 -c 2 -a 0 -i 22 -k RTR
+ -t 561.200688414 -s 4 -d -1 -p stop -e 24 -c 2 -a 0 -i 22 -k MAC 
- -t 561.200688414 -s 4 -d -1 -p stop -e 24 -c 2 -a 0 -i 22 -k MAC
h -t 561.200688414 -s 4 -d -1 -p stop -e 24 -c 2 -a 0 -i 22 -k MAC
r -t 561.200784482 -s 3 -d -1 -p stop -e 4 -c 2 -a 0 -i 22 -k MAC
r -t 561.200784504 -s 1 -d -1 -p stop -e 4 -c 2 -a 0 -i 22 -k MAC
r -t 561.200784597 -s 2 -d -1 -p stop -e 4 -c 2 -a 0 -i 22 -k MAC
r -t 561.200784607 -s 5 -d -1 -p stop -e 4 -c 2 -a 0 -i 22 -k MAC
r -t 561.200809482 -s 3 -d -1 -p stop -e 4 -c 2 -a 0 -i 22 -k RTR
r -t 561.200809482 -s 3 -d -1 -p stop -e 4 -c 2 -a 0 -i 22 -k AGT
r -t 561.200809504 -s 1 -d -1 -p stop -e 4 -c 2 -a 0 -i 22 -k RTR
r -t 561.200809504 -s 1 -d -1 -p stop -e 4 -c 2 -a 0 -i 22 -k AGT
r -t 561.200809597 -s 2 -d -1 -p stop -e 4 -c 2 -a 0 -i 22 -k RTR
r -t 561.200809597 -s 2 -d -1 -p stop -e 4 -c 2 -a 0 -i 22 -k AGT
r -t 561.200809607 -s 5 -d -1 -p stop -e 4 -c 2 -a 0 -i 22 -k RTR
r -t 561.200809607 -s 5 -d -1 -p stop -e 4 -c 2 -a 0 -i 22 -k AGT
+ -t 561.269745997 -s 2 -d -1 -p udp -e 2 -c 2 -a 0 -i 23 -k AGT 
- -t 561.269745997 -s 2 -d -1 -p udp -e 2 -c 2 -a 0 -i 23 -k AGT
h -t 561.269745997 -s 2 -d -1 -p udp -e 2 -c 2 -a 0 -i 23 -k AGT
r -t 561.269745997 -s 2 -d -1 -p udp -e 2 -c 2 -a 0 -i 23 -k RTR
+ -t 561.269745997 -s 2 -d -1 -p udp -e 2 -c 2 -a 0 -i 23 -k RTR 
- -t 561.269745997 -s 2 -d -1 -p udp -e 2 -c 2 -a 0 -i 23 -k RTR
h -t 561.269745997 -s 2 -d -1 -p udp -e 2 -c 2 -a 0 -i 23 -k RTR
+ -t 561.269770997 -s 2 -d -1 -p udp -e 22 -c 2 -a 0 -i 23 -k MAC 
- -t 561.269770997 -s 2 -d -1 -p udp -e 22 -c 2 -a 0 -i 23 -k MAC
h -t 561.269770997 -s 2 -d -1 -p udp -e 22 -c 2 -a 0 -i 23 -k MAC
r -t 561.269859180 -s 4 -d -1 -p udp -e 2 -c 2 -a 0 -i 23 -k MAC
r -t 561.269884180 -s 4 -d -1 -p udp -e 2 -c 2 -a 0 -i 23 -k RTR
r -t 561.269884180 -s 4 -d -1 -p udp -e 2 -c 2 -a 0 -i 23 -k AGT
+ -t 561.914889623 -s 3 -d -1 -p udp -e 3 -c 2 -a 0 -i 24 -k AGT 
- -t 561.914889623 -s 3 -d -1 -p udp -e 3 -c 2 -a 0 -i 24 -k AGT
h -t 561.914889623 -s 3 -d -1 -p udp -e 3 -c 2 -a 0 -i 24 -k AGT
r -t 561.914889623 -s 3 -d -1 -p udp -e 3 -c 2 -a 0 -i 24 -k RTR
+ -t 561.914889623 -s 3 -d -1 -p udp -e 3 -c 2 -a 0 -i 24 -k RTR 
- -t 561.914889623 -s 3 -d -1 -p udp -e 3 -c 2 -a 0 -i 24 -k RTR
h -t 561.914889623 -s 3 -d -1 -p udp -e 3 -c 2 -a 0 -i 24 -k RTR
+ -t 561.914914623 -s 3 -d -1 -p udp -e 23 -c 2 -a 0 -i 24 -k MAC 
- -t 561.914914623 -s 3 -d -1 -p udp -e 23 -c 2 -a 0 -i 24 -k MAC
h -t 561.914914623 -s 3 -d -1 -p udp -e 23 -c 2 -a 0 -i 24 -k MAC
r -t 561.915006691 -s 4 -d -1 -p udp -e 3 -c 2 -a 0 -i 24 -k MAC
r -t 561.915031691 -s 4 -d -1 -p udp -e 3 -c 2 -a 0 -i 24 -k RTR
r -t 561.915031691 -s 4 -d -1 -p udp -e 3 -c 2 -a 0 -i 24 -k AGT
+ -t 562.776532826 -s 5 -d -1 -p udp -e 5 -c 2 -a 0 -i 25 -k AGT 
- -t 562.776532826 -s 5 -d -1 -p udp -e 5 -c 2 -a 0 -i 25 -k AGT
h -t 562.776532826 -s 5 -d -1 -p udp -e 5 -c 2 -a 0 -i 25 -k AGT
r -t 562.776532826 -s 5 -d -1 -p udp -e 5 -c 2 -a 0 -i 25 -k RTR
+ -t 562.776532826 -s 5 -d -1 -p udp -e 5 -c 2 -a 0 -i 25 -k RTR 
- -t 562.776532826 -s 5 -d -1 -p udp -e 5 -c 2 -a 0 -i 25 -k RTR
h -t 562.776532826 -s 5 -d -1 -p udp -e 5 -c 2 -a 0 -i 25 -k RTR
+ -t 562.776557826 -s 5 -d -1 -p udp -e 25 -c 2 -a 0 -i 25 -k MAC 
- -t 562.776557826 -s 5 -d -1 -p udp -e 25 -c 2 -a 0 -i 25 -k MAC
h -t 562.776557826 -s 5 -d -1 -p udp -e 25 -c 2 -a 0 -i 25 -k MAC
r -t 562.776658019 -s 4 -d -1 -p udp -e 5 -c 2 -a 0 -i 25 -k MAC
r -t 562.776683019 -s 4 -d -1 -p udp -e 5 -c 2 -a 0 -i 25 -k RTR
r -t 562.776683019 -s 4 -d -1 -p udp -e 5 -c 2 -a 0 -i 25 -k AGT
+ -t 700.139292999 -s 2 -d -1 -p tcp -e 0 -c 2 -a 0 -i 26 -k AGT 
- -t 700.139292999 -s 2 -d -1 -p tcp -e 0 -c 2 -a 0 -i 26 -k AGT
h -t 700.139292999 -s 2 -d -1 -p tcp -e 0 -c 2 -a 0 -i 26 -k AGT
r -t 700.139292999 -s 2 -d -1 -p tcp -e 0 -c 2 -a 0 -i 26 -k RTR
+ -t 700.139292999 -s 2 -d -1 -p tcp -e 0 -c 2 -a 0 -i 26 -k RTR 
- -t 700.139292999 -s 2 -d -1 -p tcp -e 0 -c 2 -a 0 -i 26 -k RTR
h -t 700.139292999 -s 2 -d -1 -p tcp -e 0 -c 2 -a 0 -i 26 -k RTR
+ -t 700.139317999 -s 2 -d -1 -p tcp -e 20 -c 2 -a 0 -i 26 -k MAC 
- -t 700.139317999 -s 2 -d -1 -p tcp -e 20 -c 2 -a 0 -i 26 -k MAC
h -t 700.139317999 -s 2 -d -1 -p tcp -e 20 -c 2 -a 0 -i 26 -k MAC
r -t 700.139398115 -s 3 -d -1 -p tcp -e 0 -c 2 -a 0 -i 26 -k MAC
r -t 700.139398182 -s 4 -d -1 -p tcp -e 0 -c 2 -a 0 -i 26 -k MAC
r -t 700.139398245 -s 5 -d -1 -p tcp -e 0 -c 2 -a 0 -i 26 -k MAC
r -t 700.139398270 -s 1 -d -1 -p tcp -e 0 -c 2 -a 0 -i 26 -k MAC
r -t 700.139423115 -s 3 -d -1 -p tcp -e 0 -c 2 -a 0 -i 26 -k RTR
r -t 700.139423115 -s 3 -d -1 -p tcp -e 0 -c 2 -a 0 -i 26 -k AGT
r -t 700.139423182 -s 4 -d -1 -p tcp -e 0 -c 2 -a 0 -i 26 -k RTR
r -t 700.139423182 -s 4 -d -1 -p tcp -e 0 -c 2 -a 0 -i 26 -k AGT
r -t 700.139423245 -s 5 -d -1 -p tcp -e 0 -c 2 -a 0 -i 26 -k RTR
r -t 700.139423245 -s 5 -d -1 -p tcp -e 0 -c 2 -a 0 -i 26 -k AGT
r -t 700.139423270 -s 1 -d -1 -p tcp -e 0 -c 2 -a 0 -i 26 -k RTR
r -t 700.139423270 -s 1 -d -1 -p tcp -e 0 -c 2 -a 0 -i 26 -k AGT
+ -t 700.892686413 -s 5 -d -1 -p tcp -e 0 -c 2 -a 0 -i 27 -k AGT 
- -t 700.892686413 -s 5 -d -1 -p tcp -e 0 -c 2 -a 0 -i 27 -k AGT
h -t 700.892686413 -s 5 -d -1 -p tcp -e 0 -c 2 -a 0 -i 27 -k AGT
r -t 700.892686413 -s 5 -d -1 -p tcp -e 0 -c 2 -a 0 -i 27 -k RTR
+ -t 700.892686413 -s 5 -d -1 -p tcp -e 0 -c 2 -a 0 -i 27 -k RTR 
- -t 700.892686413 -s 5 -d -1 -p tcp -e 0 -c 2 -a 0 -i 27 -k RTR
h -t 700.892686413 -s 5 -d -1 -p tcp -e 0 -c 2 -a 0 -i 27 -k RTR
+ -t 700.892711413 -s 5 -d -1 -p tcp -e 20 -c 2 -a 0 -i 27 -k MAC 
- -t 700.892711413 -s 5 -d -1 -p tcp -e 20 -c 2 -a 0 -i 27 -k MAC
h -t 700.892711413 -s 5 -d -1 -p tcp -e 20 -c 2 -a 0 -i 27 -k MAC