V -t * -v 1.0a5 -a 0
A -t * -n 1 -p 0 -o 0x7fffffff -c 30 -a 1
A -t * -h 1 -m 1073741823 -s 0
+ -t 0.137349460 -s 31 -d -1 -p tcp -e 1 -c 2 -a 0 -i 0 -k AGT 
- -t 0.137349460 -s 31 -d -1 -p tcp -e 1 -c 2 -a 0 -i 0 -k AGT
h -t 0.137349460 -s 31 -d -1 -p tcp -e 1 -c 2 -a 0 -i 0 -k AGT
r -t 0.137349460 -s 31 -d -1 -p tcp -e 1 -c 2 -a 0 -i 0 -k RTR
+ -t 0.137349460 -s 31 -d -1 -p tcp -e 1 -c 2 -a 0 -i 0 -k RTR 
- -t 0.137349460 -s 31 -d -1 -p tcp -e 1 -c 2 -a 0 -i 0 -k RTR
h -t 0.137349460 -s 31 -d -1 -p tcp -e 1 -c 2 -a 0 -i 0 -k RTR
+ -t 0.137374460 -s 31 -d -1 -p tcp -e 21 -c 2 -a 0 -i 0 -k MAC 
- -t 0.137374460 -s 31 -d -1 -p tcp -e 21 -c 2 -a 0 -i 0 -k MAC
h -t 0.137374460 -s 31 -d -1 -p tcp -e 21 -c 2 -a 0 -i 0 -k MAC
r -t 0.137458479 -s 0 -d -1 -p tcp -e 1 -c 2 -a 0 -i 0 -k MAC
r -t 0.137458503 -s 28 -d -1 -p tcp -e 1 -c 2 -a 0 -i 0 -k MAC
r -t 0.137458516 -s 44 -d -1 -p tcp -e 1 -c 2 -a 0 -i 0 -k MAC
r -t 0.137458517 -s 20 -d -1 -p tcp -e 1 -c 2 -a 0 -i 0 -k MAC
r -t 0.137458517 -s 42 -d -1 -p tcp -e 1 -c 2 -a 0 -i 0 -k MAC
r -t 0.137458518 -s 15 -d -1 -p tcp -e 1 -c 2 -a 0 -i 0 -k MAC
r -t 0.137458529 -s 41 -d -1 -p tcp -e 1 -c 2 -a 0 -i 0 -k MAC
r -t 0.137458532 -s 34 -d -1 -p tcp -e 1 -c 2 -a 0 -i 0 -k MAC
r -t 0.137458533 -s 17 -d -1 -p tcp -e 1 -c 2 -a 0 -i 0 -k MAC
r -t 0.137458541 -s 18 -d -1 -p tcp -e 1 -c 2 -a 0 -i 0 -k MAC
r -t 0.137458545 -s 43 -d -1 -p tcp -e 1 -c 2 -a 0 -i 0 -k MAC
r -t 0.137458547 -s 29 -d -1 -p tcp -e 1 -c 2 -a 0 -i 0 -k MAC
r -t 0.137458552 -s 25 -d -1 -p tcp -e 1 -c 2 -a 0 -i 0 -k MAC
r -t 0.137458553 -s 10 -d -1 -p tcp -e 1 -c 2 -a 0 -i 0 -k MAC
r -t 0.137458555 -s 19 -d -1 -p tcp -e 1 -c 2 -a 0 -i 0 -k MAC
r -t 0.137458564 -s 2 -d -1 -p tcp -e 1 -c 2 -a 0 -i 0 -k MAC
r -t 0.137458570 -s 8 -d -1 -p tcp -e 1 -c 2 -a 0 -i 0 -k MAC
r -t 0.137458577 -s 39 -d -1 -p tcp -e 1 -c 2 -a 0 -i 0 -k MAC
r -t 0.137458581 -s 33 -d -1 -p tcp -e 1 -c 2 -a 0 -i 0 -k MAC
r -t 0.137458582 -s 38 -d -1 -p tcp -e 1 -c 2 -a 0 -i 0 -k MAC
r -t 0.137458586 -s 12 -d -1 -p tcp -e 1 -c 2 -a 0 -i 0 -k MAC
r -t 0.137458587 -s 3 -d -1 -p tcp -e 1 -c 2 -a 0 -i 0 -k MAC
r -t 0.137458587 -s 7 -d -1 -p tcp -e 1 -c 2 -a 0 -i 0 -k MAC
r -t 0.137458591 -s 35 -d -1 -p tcp -e 1 -c 2 -a 0 -i 0 -k MAC
r -t 0.137458592 -s 13 -d -1 -p tcp -e 1 -c 2 -a 0 -i 0 -k MAC
r -t 0.137458592 -s 4 -d -1 -p tcp -e 1 -c 2 -a 0 -i 0 -k MAC
r -t 0.137458594 -s 24 -d -1 -p tcp -e 1 -c 2 -a 0 -i 0 -k MAC
r -t 0.137458600 -s 22 -d -1 -p tcp -e 1 -c 2 -a 0 -i 0 -k MAC
r -t 0.137458603 -s 27 -d -1 -p tcp -e 1 -c 2 -a 0 -i 0 -k MAC
r -t 0.137458607 -s 11 -d -1 -p tcp -e 1 -c 2 -a 0 -i 0 -k MAC
r -t 0.137458611 -s 16 -d -1 -p tcp -e 1 -c 2 -a 0 -i 0 -k MAC
r -t 0.137458615 -s 36 -d -1 -p tcp -e 1 -c 2 -a 0 -i 0 -k MAC
r -t 0.137458615 -s 6 -d -1 -p tcp -e 1 -c 2 -a 0 -i 0 -k MAC
r -t 0.137458617 -s 23 -d -1 -p tcp -e 1 -c 2 -a 0 -i 0 -k MAC
r -t 0.137458621 -s 21 -d -1 -p tcp -e 1 -c 2 -a 0 -i 0 -k MAC
r -t 0.137458632 -s 32 -d -1 -p tcp -e 1 -c 2 -a 0 -i 0 -k MAC
r -t 0.137458633 -s 5 -d -1 -p tcp -e 1 -c 2 -a 0 -i 0 -k MAC
r -t 0.137458639 -s 37 -d -1 -p tcp -e 1 -c 2 -a 0 -i 0 -k MAC
r -t 0.137458641 -s 9 -d -1 -p tcp -e 1 -c 2 -a 0 -i 0 -k MAC
r -t 0.137458642 -s 26 -d -1 -p tcp -e 1 -c 2 -a 0 -i 0 -k MAC
r -t 0.137458651 -s 1 -d -1 -p tcp -e 1 -c 2 -a 0 -i 0 -k MAC
r -t 0.137458652 -s 40 -d -1 -p tcp -e 1 -c 2 -a 0 -i 0 -k MAC
r -t 0.137458673 -s 14 -d -1 -p tcp -e 1 -c 2 -a 0 -i 0 -k MAC
r -t 0.137458677 -s 30 -d -1 -p tcp -e 1 -c 2 -a 0 -i 0 -k MAC
r -t 0.137483479 -s 0 -d -1 -p tcp -e 1 -c 2 -a 0 -i 0 -k RTR
r -t 0.137483479 -s 0 -d -1 -p tcp -e 1 -c 2 -a 0 -i 0 -k AGT
r -t 0.137483503 -s 28 -d -1 -p tcp -e 1 -c 2 -a 0 -i 0 -k RTR
r -t 0.137483503 -s 28 -d -1 -p tcp -e 1 -c 2 -a 0 -i 0 -k AGT
r -t 0.137483516 -s 44 -d -1 -p tcp -e 1 -c 2 -a 0 -i 0 -k RTR
r -t 0.137483516 -s 44 -d -1 -p tcp -e 1 -c 2 -a 0 -i 0 -k AGT
r -t 0.137483517 -s 20 -d -1 -p tcp -e 1 -c 2 -a 0 -i 0 -k RTR
r -t 0.137483517 -s 20 -d -1 -p tcp -e 1 -c 2 -a 0 -i 0 -k AGT
r -t 0.137483517 -s 42 -d -1 -p tcp -e 1 -c 2 -a 0 -i 0 -k RTR
r -t 0.137483517 -s 42 -d -1 -p tcp -e 1 -c 2 -a 0 -i 0 -k AGT
r -t 0.137483518 -s 15 -d -1 -p tcp -e 1 -c 2 -a 0 -i 0 -k RTR
r -t 0.137483518 -s 15 -d -1 -p tcp -e 1 -c 2 -a 0 -i 0 -k AGT
r -t 0.137483529 -s 41 -d -1 -p tcp -e 1 -c 2 -a 0 -i 0 -k RTR
r -t 0.137483529 -s 41 -d -1 -p tcp -e 1 -c 2 -a 0 -i 0 -k AGT
r -t 0.137483532 -s 34 -d -1 -p tcp -e 1 -c 2 -a 0 -i 0 -k RTR
r -t 0.137483532 -s 34 -d -1 -p tcp -e 1 -c 2 -a 0 -i 0 -k AGT
r -t 0.137483533 -s 17 -d -1 -p tcp -e 1 -c 2 -a 0 -i 0 -k RTR
r -t 0.137483533 -s 17 -d -1 -p tcp -e 1 -c 2 -a 0 -i 0 -k AGT
r -t 0.137483541 -s 18 -d -1 -p tcp -e 1 -c 2 -a 0 -i 0 -k RTR
r -t 0.137483541 -s 18 -d -1 -p tcp -e 1 -c 2 -a 0 -i 0 -k AGT
r -t 0.137483545 -s 43 -d -1 -p tcp -e 1 -c 2 -a 0 -i 0 -k RTR
r -t 0.137483545 -s 43 -d -1 -p tcp -e 1 -c 2 -a 0 -i 0 -k AGT
r -t 0.137483547 -s 29 -d -1 -p tcp -e 1 -c 2 -a 0 -i 0 -k RTR
r -t 0.137483547 -s 29 -d -1 -p tcp -e 1 -c 2 -a 0 -i 0 -k AGT
r -t 0.137483552 -s 25 -d -1 -p tcp -e 1 -c 2 -a 0 -i 0 -k RTR
r -t 0.137483552 -s 25 -d -1 -p tcp -e 1 -c 2 -a 0 -i 0 -k AGT
r -t 0.137483553 -s 10 -d -1 -p tcp -e 1 -c 2 -a 0 -i 0 -k RTR
r -t 0.137483553 -s 10 -d -1 -p tcp -e 1 -c 2 -a 0 -i 0 -k AGT
r -t 0.137483555 -s 19 -d -1 -p tcp -e 1 -c 2 -a 0 -i 0 -k RTR
r -t 0.137483555 -s 19 -d -1 -p tcp -e 1 -c 2 -a 0 -i 0 -k AGT
r -t 0.137483564 -s 2 -d -1 -p tcp -e 1 -c 2 -a 0 -i 0 -k RTR
r -t 0.137483564 -s 2 -d -1 -p tcp -e 1 -c 2 -a 0 -i 0 -k AGT
r -t 0.137483570 -s 8 -d -1 -p tcp -e 1 -c 2 -a 0 -i 0 -k RTR
r -t 0.137483570 -s 8 -d -1 -p tcp -e 1 -c 2 -a 0 -i 0 -k AGT
r -t 0.137483577 -s 39 -d -1 -p tcp -e 1 -c 2 -a 0 -i 0 -k RTR
r -t 0.137483577 -s 39 -d -1 -p tcp -e 1 -c 2 -a 0 -i 0 -k AGT
r -t 0.137483581 -s 33 -d -1 -p tcp -e 1 -c 2 -a 0 -i 0 -k RTR
r -t 0.137483581 -s 33 -d -1 -p tcp -e 1 -c 2 -a 0 -i 0 -k AGT
r -t 0.137483582 -s 38 -d -1 -p tcp -e 1 -c 2 -a 0 -i 0 -k RTR
r -t 0.137483582 -s 38 -d -1 -p tcp -e 1 -c 2 -a 0 -i 0 -k AGT
r -t 0.137483586 -s 12 -d -1 -p tcp -e 1 -c 2 -a 0 -i 0 -k RTR
r -t 0.137483586 -s 12 -d -1 -p tcp -e 1 -c 2 -a 0 -i 0 -k AGT
r -t 0.137483587 -s 3 -d -1 -p tcp -e 1 -c 2 -a 0 -i 0 -k RTR
r -t 0.137483587 -s 3 -d -1 -p tcp -e 1 -c 2 -a 0 -i 0 -k AGT
r -t 0.137483587 -s 7 -d -1 -p tcp -e 1 -c 2 -a 0 -i 0 -k RTR
r -t 0.137483587 -s 7 -d -1 -p tcp -e 1 -c 2 -a 0 -i 0 -k AGT
r -t 0.137483591 -s 35 -d -1 -p tcp -e 1 -c 2 -a 0 -i 0 -k RTR
r -t 0.137483591 -s 35 -d -1 -p tcp -e 1 -c 2 -a 0 -i 0 -k AGT
r -t 0.137483592 -s 13 -d -1 -p tcp -e 1 -c 2 -a 0 -i 0 -k RTR
r -t 0.137483592 -s 13 -d -1 -p tcp -e 1 -c 2 -a 0 -i 0 -k AGT
r -t 0.137483592 -s 4 -d -1 -p tcp -e 1 -c 2 -a 0 -i 0 -k RTR
r -t 0.137483592 -s 4 -d -1 -p tcp -e 1 -c 2 -a 0 -i 0 -k AGT
r -t 0.137483594 -s 24 -d -1 -p tcp -e 1 -c 2 -a 0 -i 0 -k RTR
r -t 0.137483594 -s 24 -d -1 -p tcp -e 1 -c 2 -a 0 -i 0 -k AGT
r -t 0.137483600 -s 22 -d -1 -p tcp -e 1 -c 2 -a 0 -i 0 -k RTR
r -t 0.137483600 -s 22 -d -1 -p tcp -e 1 -c 2 -a 0 -i 0 -k AGT
r -t 0.137483603 -s 27 -d -1 -p tcp -e 1 -c 2 -a 0 -i 0 -k RTR
r -t 0.137483603 -s 27 -d -1 -p tcp -e 1 -c 2 -a 0 -i 0 -k AGT
r -t 0.137483607 -s 11 -d -1 -p tcp -e 1 -c 2 -a 0 -i 0 -k RTR
r -t 0.137483607 -s 11 -d -1 -p tcp -e 1 -c 2 -a 0 -i 0 -k AGT
r -t 0.137483611 -s 16 -d -1 -p tcp -e 1 -c 2 -a 0 -i 0 -k RTR
r -t 0.137483611 -s 16 -d -1 -p tcp -e 1 -c 2 -a 0 -i 0 -k AGT
r -t 0.137483615 -s 36 -d -1 -p tcp -e 1 -c 2 -a 0 -i 0 -k RTR
r -t 0.137483615 -s 36 -d -1 -p tcp -e 1 -c 2 -a 0 -i 0 -k AGT
r -t 0.137483615 -s 6 -d -1 -p tcp -e 1 -c 2 -a 0 -i 0 -k RTR
r -t 0.137483615 -s 6 -d -1 -p tcp -e 1 -c 2 -a 0 -i 0 -k AGT
r -t 0.137483617 -s 23 -d -1 -p tcp -e 1 -c 2 -a 0 -i 0 -k RTR
r -t 0.137483617 -s 23 -d -1 -p tcp -e 1 -c 2 -a 0 -i 0 -k AGT
r -t 0.137483621 -s 21 -d -1 -p tcp -e 1 -c 2 -a 0 -i 0 -k RTR
r -t 0.137483621 -s 21 -d -1 -p tcp -e 1 -c 2 -a 0 -i 0 -k AGT
r -t 0.137483632 -s 32 -d -1 -p tcp -e 1 -c 2 -a 0 -i 0 -k RTR
r -t 0.137483632 -s 32 -d -1 -p tcp -e 1 -c 2 -a 0 -i 0 -k AGT
r -t 0.137483633 -s 5 -d -1 -p tcp -e 1 -c 2 -a 0 -i 0 -k RTR
r -t 0.137483633 -s 5 -d -1 -p tcp -e 1 -c 2 -a 0 -i 0 -k AGT
r -t 0.137483639 -s 37 -d -1 -p tcp -e 1 -c 2 -a 0 -i 0 -k RTR
r -t 0.137483639 -s 37 -d -1 -p tcp -e 1 -c 2 -a 0 -i 0 -k AGT
r -t 0.137483641 -s 9 -d -1 -p tcp -e 1 -c 2 -a 0 -i 0 -k RTR
r -t 0.137483641 -s 9 -d -1 -p tcp -e 1 -c 2 -a 0 -i 0 -k AGT
r -t 0.137483642 -s 26 -d -1 -p tcp -e 1 -c 2 -a 0 -i 0 -k RTR
r -t 0.137483642 -s 26 -d -1 -p tcp -e 1 -c 2 -a 0 -i 0 -k AGT
r -t 0.137483651 -s 1 -d -1 -p tcp -e 1 -c 2 -a 0 -i 0 -k RTR
r -t 0.137483651 -s 1 -d -1 -p tcp -e 1 -c 2 -a 0 -i 0 -k AGT
r -t 0.137483652 -s 40 -d -1 -p tcp -e 1 -c 2 -a 0 -i 0 -k RTR
r -t 0.137483652 -s 40 -d -1 -p tcp -e 1 -c 2 -a 0 -i 0 -k AGT
r -t 0.137483673 -s 14 -d -1 -p tcp -e 1 -c 2 -a 0 -i 0 -k RTR
r -t 0.137483673 -s 14 -d -1 -p tcp -e 1 -c 2 -a 0 -i 0 -k AGT
r -t 0.137483677 -s 30 -d -1 -p tcp -e 1 -c 2 -a 0 -i 0 -k RTR
r -t 0.137483677 -s 30 -d -1 -p tcp -e 1 -c 2 -a 0 -i 0 -k AGT
+ -t 0.220083380 -s 5 -d -1 -p tcp -e 1 -c 2 -a 0 -i 1 -k AGT 
- -t 0.220083380 -s 5 -d -1 -p tcp -e 1 -c 2 -a 0 -i 1 -k AGT
h -t 0.220083380 -s 5 -d -1 -p tcp -e 1 -c 2 -a 0 -i 1 -k AGT
r -t 0.220083380 -s 5 -d -1 -p tcp -e 1 -c 2 -a 0 -i 1 -k RTR
+ -t 0.220083380 -s 5 -d -1 -p tcp -e 1 -c 2 -a 0 -i 1 -k RTR 
- -t 0.220083380 -s 5 -d -1 -p tcp -e 1 -c 2 -a 0 -i 1 -k RTR
h -t 0.220083380 -s 5 -d -1 -p tcp -e 1 -c 2 -a 0 -i 1 -k RTR
+ -t 0.220108380 -s 5 -d -1 -p tcp -e 21 -c 2 -a 0 -i 1 -k MAC 
- -t 0.220108380 -s 5 -d -1 -p tcp -e 21 -c 2 -a 0 -i 1 -k MAC
h -t 0.220108380 -s 5 -d -1 -p tcp -e 21 -c 2 -a 0 -i 1 -k MAC
r -t 0.220192417 -s 40 -d -1 -p tcp -e 1 -c 2 -a 0 -i 1 -k MAC
r -t 0.220192422 -s 14 -d -1 -p tcp -e 1 -c 2 -a 0 -i 1 -k MAC
r -t 0.220192429 -s 4 -d -1 -p tcp -e 1 -c 2 -a 0 -i 1 -k MAC
r -t 0.220192436 -s 32 -d -1 -p tcp -e 1 -c 2 -a 0 -i 1 -k MAC
r -t 0.220192444 -s 33 -d -1 -p tcp -e 1 -c 2 -a 0 -i 1 -k MAC
r -t 0.220192473 -s 10 -d -1 -p tcp -e 1 -c 2 -a 0 -i 1 -k MAC
r -t 0.220192474 -s 18 -d -1 -p tcp -e 1 -c 2 -a 0 -i 1 -k MAC
r -t 0.220192483 -s 24 -d -1 -p tcp -e 1 -c 2 -a 0 -i 1 -k MAC
r -t 0.220192489 -s 17 -d -1 -p tcp -e 1 -c 2 -a 0 -i 1 -k MAC
r -t 0.220192502 -s 25 -d -1 -p tcp -e 1 -c 2 -a 0 -i 1 -k MAC
r -t 0.220192502 -s 37 -d -1 -p tcp -e 1 -c 2 -a 0 -i 1 -k MAC
r -t 0.220192518 -s 28 -d -1 -p tcp -e 1 -c 2 -a 0 -i 1 -k MAC
r -t 0.220192530 -s 11 -d -1 -p tcp -e 1 -c 2 -a 0 -i 1 -k MAC
r -t 0.220192531 -s 9 -d -1 -p tcp -e 1 -c 2 -a 0 -i 1 -k MAC
r -t 0.220192536 -s 27 -d -1 -p tcp -e 1 -c 2 -a 0 -i 1 -k MAC
r -t 0.220192539 -s 0 -d -1 -p tcp -e 1 -c 2 -a 0 -i 1 -k MAC
r -t 0.220192542 -s 7 -d -1 -p tcp -e 1 -c 2 -a 0 -i 1 -k MAC
r -t 0.220192547 -s 44 -d -1 -p tcp -e 1 -c 2 -a 0 -i 1 -k MAC
r -t 0.220192556 -s 29 -d -1 -p tcp -e 1 -c 2 -a 0 -i 1 -k MAC
r -t 0.220192558 -s 23 -d -1 -p tcp -e 1 -c 2 -a 0 -i 1 -k MAC
r -t 0.220192574 -s 41 -d -1 -p tcp -e 1 -c 2 -a 0 -i 1 -k MAC
r -t 0.220192575 -s 16 -d -1 -p tcp -e 1 -c 2 -a 0 -i 1 -k MAC
r -t 0.220192576 -s 1 -d -1 -p tcp -e 1 -c 2 -a 0 -i 1 -k MAC
r -t 0.220192584 -s 15 -d -1 -p tcp -e 1 -c 2 -a 0 -i 1 -k MAC
r -t 0.220192589 -s 42 -d -1 -p tcp -e 1 -c 2 -a 0 -i 1 -k MAC
r -t 0.220192591 -s 20 -d -1 -p tcp -e 1 -c 2 -a 0 -i 1 -k MAC
r -t 0.220192607 -s 34 -d -1 -p tcp -e 1 -c 2 -a 0 -i 1 -k MAC
r -t 0.220192628 -s 12 -d -1 -p tcp -e 1 -c 2 -a 0 -i 1 -k MAC
r -t 0.220192632 -s 35 -d -1 -p tcp -e 1 -c 2 -a 0 -i 1 -k MAC
r -t 0.220192634 -s 19 -d -1 -p tcp -e 1 -c 2 -a 0 -i 1 -k MAC
r -t 0.220192635 -s 2 -d -1 -p tcp -e 1 -c 2 -a 0 -i 1 -k MAC
r -t 0.220192640 -s 43 -d -1 -p tcp -e 1 -c 2 -a 0 -i 1 -k MAC
r -t 0.220192645 -s 26 -d -1 -p tcp -e 1 -c 2 -a 0 -i 1 -k MAC
r -t 0.220192647 -s 8 -d -1 -p tcp -e 1 -c 2 -a 0 -i 1 -k MAC
r -t 0.220192649 -s 13 -d -1 -p tcp -e 1 -c 2 -a 0 -i 1 -k MAC
r -t 0.220192655 -s 39 -d -1 -p tcp -e 1 -c 2 -a 0 -i 1 -k MAC
r -t 0.220192656 -s 21 -d -1 -p tcp -e 1 -c 2 -a 0 -i 1 -k MAC
r -t 0.220192669 -s 36 -d -1 -p tcp -e 1 -c 2 -a 0 -i 1 -k MAC
r -t 0.220192676 -s 38 -d -1 -p tcp -e 1 -c 2 -a 0 -i 1 -k MAC
r -t 0.220192679 -s 3 -d -1 -p tcp -e 1 -c 2 -a 0 -i 1 -k MAC
r -t 0.220192691 -s 22 -d -1 -p tcp -e 1 -c 2 -a 0 -i 1 -k MAC
r -t 0.220192710 -s 6 -d -1 -p tcp -e 1 -c 2 -a 0 -i 1 -k MAC
r -t 0.220192772 -s 30 -d -1 -p tcp -e 1 -c 2 -a 0 -i 1 -k MAC
r -t 0.220217417 -s 40 -d -1 -p tcp -e 1 -c 2 -a 0 -i 1 -k RTR
r -t 0.220217417 -s 40 -d -1 -p tcp -e 1 -c 2 -a 0 -i 1 -k AGT
r -t 0.220217422 -s 14 -d -1 -p tcp -e 1 -c 2 -a 0 -i 1 -k RTR
r -t 0.220217422 -s 14 -d -1 -p tcp -e 1 -c 2 -a 0 -i 1 -k AGT
r -t 0.220217429 -s 4 -d -1 -p tcp -e 1 -c 2 -a 0 -i 1 -k RTR
r -t 0.220217429 -s 4 -d -1 -p tcp -e 1 -c 2 -a 0 -i 1 -k AGT
r -t 0.220217436 -s 32 -d -1 -p tcp -e 1 -c 2 -a 0 -i 1 -k RTR
r -t 0.220217436 -s 32 -d -1 -p tcp -e 1 -c 2 -a 0 -i 1 -k AGT
r -t 0.220217444 -s 33 -d -1 -p tcp -e 1 -c 2 -a 0 -i 1 -k RTR
r -t 0.220217444 -s 33 -d -1 -p tcp -e 1 -c 2 -a 0 -i 1 -k AGT
r -t 0.220217473 -s 10 -d -1 -p tcp -e 1 -c 2 -a 0 -i 1 -k RTR
r -t 0.220217473 -s 10 -d -1 -p tcp -e 1 -c 2 -a 0 -i 1 -k AGT
r -t 0.220217474 -s 18 -d -1 -p tcp -e 1 -c 2 -a 0 -i 1 -k RTR
r -t 0.220217474 -s 18 -d -1 -p tcp -e 1 -c 2 -a 0 -i 1 -k AGT
r -t 0.220217483 -s 24 -d -1 -p tcp -e 1 -c 2 -a 0 -i 1 -k RTR
r -t 0.220217483 -s 24 -d -1 -p tcp -e 1 -c 2 -a 0 -i 1 -k AGT
r -t 0.220217489 -s 17 -d -1 -p tcp -e 1 -c 2 -a 0 -i 1 -k RTR
r -t 0.220217489 -s 17 -d -1 -p tcp -e 1 -c 2 -a 0 -i 1 -k AGT
r -t 0.220217502 -s 25 -d -1 -p tcp -e 1 -c 2 -a 0 -i 1 -k RTR
r -t 0.220217502 -s 25 -d -1 -p tcp -e 1 -c 2 -a 0 -i 1 -k AGT
r -t 0.220217502 -s 37 -d -1 -p tcp -e 1 -c 2 -a 0 -i 1 -k RTR
r -t 0.220217502 -s 37 -d -1 -p tcp -e 1 -c 2 -a 0 -i 1 -k AGT
r -t 0.220217518 -s 28 -d -1 -p tcp -e 1 -c 2 -a 0 -i 1 -k RTR
r -t 0.220217518 -s 28 -d -1 -p tcp -e 1 -c 2 -a 0 -i 1 -k AGT
r -t 0.220217530 -s 11 -d -1 -p tcp -e 1 -c 2 -a 0 -i 1 -k RTR
r -t 0.220217530 -s 11 -d -1 -p tcp -e 1 -c 2 -a 0 -i 1 -k AGT
r -t 0.220217531 -s 9 -d -1 -p tcp -e 1 -c 2 -a 0 -i 1 -k RTR
r -t 0.220217531 -s 9 -d -1 -p tcp -e 1 -c 2 -a 0 -i 1 -k AGT
r -t 0.220217536 -s 27 -d -1 -p tcp -e 1 -c 2 -a 0 -i 1 -k RTR
r -t 0.220217536 -s 27 -d -1 -p tcp -e 1 -c 2 -a 0 -i 1 -k AGT
r -t 0.220217539 -s 0 -d -1 -p tcp -e 1 -c 2 -a 0 -i 1 -k RTR
r -t 0.220217539 -s 0 -d -1 -p tcp -e 1 -c 2 -a 0 -i 1 -k AGT
r -t 0.220217542 -s 7 -d -1 -p tcp -e 1 -c 2 -a 0 -i 1 -k RTR
r -t 0.220217542 -s 7 -d -1 -p tcp -e 1 -c 2 -a 0 -i 1 -k AGT
r -t 0.220217547 -s 44 -d -1 -p tcp -e 1 -c 2 -a 0 -i 1 -k RTR
r -t 0.220217547 -s 44 -d -1 -p tcp -e 1 -c 2 -a 0 -i 1 -k AGT
r -t 0.220217556 -s 29 -d -1 -p tcp -e 1 -c 2 -a 0 -i 1 -k RTR
r -t 0.220217556 -s 29 -d -1 -p tcp -e 1 -c 2 -a 0 -i 1 -k AGT
r -t 0.220217558 -s 23 -d -1 -p tcp -e 1 -c 2 -a 0 -i 1 -k RTR
r -t 0.220217558 -s 23 -d -1 -p tcp -e 1 -c 2 -a 0 -i 1 -k AGT
r -t 0.220217574 -s 41 -d -1 -p tcp -e 1 -c 2 -a 0 -i 1 -k RTR
r -t 0.220217574 -s 41 -d -1 -p tcp -e 1 -c 2 -a 0 -i 1 -k AGT
r -t 0.220217575 -s 16 -d -1 -p tcp -e 1 -c 2 -a 0 -i 1 -k RTR
r -t 0.220217575 -s 16 -d -1 -p tcp -e 1 -c 2 -a 0 -i 1 -k AGT
r -t 0.220217576 -s 1 -d -1 -p tcp -e 1 -c 2 -a 0 -i 1 -k RTR
r -t 0.220217576 -s 1 -d -1 -p tcp -e 1 -c 2 -a 0 -i 1 -k AGT
r -t 0.220217584 -s 15 -d -1 -p tcp -e 1 -c 2 -a 0 -i 1 -k RTR
r -t 0.220217584 -s 15 -d -1 -p tcp -e 1 -c 2 -a 0 -i 1 -k AGT
r -t 0.220217589 -s 42 -d -1 -p tcp -e 1 -c 2 -a 0 -i 1 -k RTR
r -t 0.220217589 -s 42 -d -1 -p tcp -e 1 -c 2 -a 0 -i 1 -k AGT
r -t 0.220217591 -s 20 -d -1 -p tcp -e 1 -c 2 -a 0 -i 1 -k RTR
r -t 0.220217591 -s 20 -d -1 -p tcp -e 1 -c 2 -a 0 -i 1 -k AGT
r -t 0.220217607 -s 34 -d -1 -p tcp -e 1 -c 2 -a 0 -i 1 -k RTR
r -t 0.220217607 -s 34 -d -1 -p tcp -e 1 -c 2 -a 0 -i 1 -k AGT
r -t 0.220217628 -s 12 -d -1 -p tcp -e 1 -c 2 -a 0 -i 1 -k RTR
r -t 0.220217628 -s 12 -d -1 -p tcp -e 1 -c 2 -a 0 -i 1 -k AGT
r -t 0.220217632 -s 35 -d -1 -p tcp -e 1 -c 2 -a 0 -i 1 -k RTR
r -t 0.220217632 -s 35 -d -1 -p tcp -e 1 -c 2 -a 0 -i 1 -k AGT
r -t 0.220217634 -s 19 -d -1 -p tcp -e 1 -c 2 -a 0 -i 1 -k RTR
r -t 0.220217634 -s 19 -d -1 -p tcp -e 1 -c 2 -a 0 -i 1 -k AGT
r -t 0.220217635 -s 2 -d -1 -p tcp -e 1 -c 2 -a 0 -i 1 -k RTR
r -t 0.220217635 -s 2 -d -1 -p tcp -e 1 -c 2 -a 0 -i 1 -k AGT
r -t 0.220217640 -s 43 -d -1 -p tcp -e 1 -c 2 -a 0 -i 1 -k RTR
r -t 0.220217640 -s 43 -d -1 -p tcp -e 1 -c 2 -a 0 -i 1 -k AGT
r -t 0.220217645 -s 26 -d -1 -p tcp -e 1 -c 2 -a 0 -i 1 -k RTR
r -t 0.220217645 -s 26 -d -1 -p tcp -e 1 -c 2 -a 0 -i 1 -k AGT
r -t 0.220217647 -s 8 -d -1 -p tcp -e 1 -c 2 -a 0 -i 1 -k RTR
r -t 0.220217647 -s 8 -d -1 -p tcp -e 1 -c 2 -a 0 -i 1 -k AGT
r -t 0.220217649 -s 13 -d -1 -p tcp -e 1 -c 2 -a 0 -i 1 -k RTR
r -t 0.220217649 -s 13 -d -1 -p tcp -e 1 -c 2 -a 0 -i 1 -k AGT
r -t 0.220217655 -s 39 -d -1 -p tcp -e 1 -c 2 -a 0 -i 1 -k RTR
r -t 0.220217655 -s 39 -d -1 -p tcp -e 1 -c 2 -a 0 -i 1 -k AGT
r -t 0.220217656 -s 21 -d -1 -p tcp -e 1 -c 2 -a 0 -i 1 -k RTR
r -t 0.220217656 -s 21 -d -1 -p tcp -e 1 -c 2 -a 0 -i 1 -k AGT
r -t 0.220217669 -s 36 -d -1 -p tcp -e 1 -c 2 -a 0 -i 1 -k RTR
r -t 0.220217669 -s 36 -d -1 -p tcp -e 1 -c 2 -a 0 -i 1 -k AGT
r -t 0.220217676 -s 38 -d -1 -p tcp -e 1 -c 2 -a 0 -i 1 -k RTR
r -t 0.220217676 -s 38 -d -1 -p tcp -e 1 -c 2 -a 0 -i 1 -k AGT
r -t 0.220217679 -s 3 -d -1 -p tcp -e 1 -c 2 -a 0 -i 1 -k RTR
r -t 0.220217679 -s 3 -d -1 -p tcp -e 1 -c 2 -a 0 -i 1 -k AGT
r -t 0.220217691 -s 22 -d -1 -p tcp -e 1 -c 2 -a 0 -i 1 -k RTR
r -t 0.220217691 -s 22 -d -1 -p tcp -e 1 -c 2 -a 0 -i 1 -k AGT
r -t 0.220217710 -s 6 -d -1 -p tcp -e 1 -c 2 -a 0 -i 1 -k RTR
r -t 0.220217710 -s 6 -d -1 -p tcp -e 1 -c 2 -a 0 -i 1 -k AGT
r -t 0.220217772 -s 30 -d -1 -p tcp -e 1 -c 2 -a 0 -i 1 -k RTR
r -t 0.220217772 -s 30 -d -1 -p tcp -e 1 -c 2 -a 0 -i 1 -k AGT
+ -t 0.221031430 -s 44 -d -1 -p tcp -e 1 -c 2 -a 0 -i 2 -k AGT 
- -t 0.221031430 -s 44 -d -1 -p tcp -e 1 -c 2 -a 0 -i 2 -k AGT
h -t 0.221031430 -s 44 -d -1 -p tcp -e 1 -c 2 -a 0 -i 2 -k AGT
r -t 0.221031430 -s 44 -d -1 -p tcp -e 1 -c 2 -a 0 -i 2 -k RTR
+ -t 0.221031430 -s 44 -d -1 -p tcp -e 1 -c 2 -a 0 -i 2 -k RTR 
- -t 0.221031430 -s 44 -d -1 -p tcp -e 1 -c 2 -a 0 -i 2 -k RTR
h -t 0.221031430 -s 44 -d -1 -p tcp -e 1 -c 2 -a 0 -i 2 -k RTR
+ -t 0.221056430 -s 44 -d -1 -p tcp -e 21 -c 2 -a 0 -i 2 -k MAC 
- -t 0.221056430 -s 44 -d -1 -p tcp -e 21 -c 2 -a 0 -i 2 -k MAC
h -t 0.221056430 -s 44 -d -1 -p tcp -e 21 -c 2 -a 0 -i 2 -k MAC
r -t 0.221140461 -s 29 -d -1 -p tcp -e 1 -c 2 -a 0 -i 2 -k MAC
r -t 0.221140470 -s 28 -d -1 -p tcp -e 1 -c 2 -a 0 -i 2 -k MAC
r -t 0.221140470 -s 15 -d -1 -p tcp -e 1 -c 2 -a 0 -i 2 -k MAC
r -t 0.221140473 -s 0 -d -1 -p tcp -e 1 -c 2 -a 0 -i 2 -k MAC
r -t 0.221140484 -s 25 -d -1 -p tcp -e 1 -c 2 -a 0 -i 2 -k MAC
r -t 0.221140503 -s 7 -d -1 -p tcp -e 1 -c 2 -a 0 -i 2 -k MAC
r -t 0.221140518 -s 12 -d -1 -p tcp -e 1 -c 2 -a 0 -i 2 -k MAC
r -t 0.221140519 -s 19 -d -1 -p tcp -e 1 -c 2 -a 0 -i 2 -k MAC
r -t 0.221140520 -s 27 -d -1 -p tcp -e 1 -c 2 -a 0 -i 2 -k MAC
r -t 0.221140520 -s 18 -d -1 -p tcp -e 1 -c 2 -a 0 -i 2 -k MAC
r -t 0.221140523 -s 35 -d -1 -p tcp -e 1 -c 2 -a 0 -i 2 -k MAC
r -t 0.221140526 -s 11 -d -1 -p tcp -e 1 -c 2 -a 0 -i 2 -k MAC
r -t 0.221140526 -s 24 -d -1 -p tcp -e 1 -c 2 -a 0 -i 2 -k MAC
r -t 0.221140526 -s 17 -d -1 -p tcp -e 1 -c 2 -a 0 -i 2 -k MAC
r -t 0.221140535 -s 33 -d -1 -p tcp -e 1 -c 2 -a 0 -i 2 -k MAC
r -t 0.221140543 -s 20 -d -1 -p tcp -e 1 -c 2 -a 0 -i 2 -k MAC
r -t 0.221140544 -s 10 -d -1 -p tcp -e 1 -c 2 -a 0 -i 2 -k MAC
r -t 0.221140544 -s 42 -d -1 -p tcp -e 1 -c 2 -a 0 -i 2 -k MAC
r -t 0.221140549 -s 43 -d -1 -p tcp -e 1 -c 2 -a 0 -i 2 -k MAC
r -t 0.221140552 -s 21 -d -1 -p tcp -e 1 -c 2 -a 0 -i 2 -k MAC
r -t 0.221140556 -s 41 -d -1 -p tcp -e 1 -c 2 -a 0 -i 2 -k MAC
r -t 0.221140556 -s 36 -d -1 -p tcp -e 1 -c 2 -a 0 -i 2 -k MAC
r -t 0.221140557 -s 34 -d -1 -p tcp -e 1 -c 2 -a 0 -i 2 -k MAC
r -t 0.221140562 -s 9 -d -1 -p tcp -e 1 -c 2 -a 0 -i 2 -k MAC
r -t 0.221140563 -s 26 -d -1 -p tcp -e 1 -c 2 -a 0 -i 2 -k MAC
r -t 0.221140566 -s 37 -d -1 -p tcp -e 1 -c 2 -a 0 -i 2 -k MAC
r -t 0.221140566 -s 1 -d -1 -p tcp -e 1 -c 2 -a 0 -i 2 -k MAC
r -t 0.221140568 -s 4 -d -1 -p tcp -e 1 -c 2 -a 0 -i 2 -k MAC
r -t 0.221140580 -s 22 -d -1 -p tcp -e 1 -c 2 -a 0 -i 2 -k MAC
r -t 0.221140584 -s 38 -d -1 -p tcp -e 1 -c 2 -a 0 -i 2 -k MAC
r -t 0.221140588 -s 2 -d -1 -p tcp -e 1 -c 2 -a 0 -i 2 -k MAC
r -t 0.221140592 -s 8 -d -1 -p tcp -e 1 -c 2 -a 0 -i 2 -k MAC
r -t 0.221140596 -s 3 -d -1 -p tcp -e 1 -c 2 -a 0 -i 2 -k MAC
r -t 0.221140597 -s 39 -d -1 -p tcp -e 1 -c 2 -a 0 -i 2 -k MAC
r -t 0.221140612 -s 6 -d -1 -p tcp -e 1 -c 2 -a 0 -i 2 -k MAC
r -t 0.221140614 -s 32 -d -1 -p tcp -e 1 -c 2 -a 0 -i 2 -k MAC
r -t 0.221140618 -s 13 -d -1 -p tcp -e 1 -c 2 -a 0 -i 2 -k MAC
r -t 0.221140624 -s 40 -d -1 -p tcp -e 1 -c 2 -a 0 -i 2 -k MAC
r -t 0.221140632 -s 16 -d -1 -p tcp -e 1 -c 2 -a 0 -i 2 -k MAC
r -t 0.221140634 -s 23 -d -1 -p tcp -e 1 -c 2 -a 0 -i 2 -k MAC
r -t 0.221140638 -s 14 -d -1 -p tcp -e 1 -c 2 -a 0 -i 2 -k MAC
r -t 0.221140671 -s 30 -d -1 -p tcp -e 1 -c 2 -a 0 -i 2 -k MAC
r -t 0.221165461 -s 29 -d -1 -p tcp -e 1 -c 2 -a 0 -i 2 -k RTR
r -t 0.221165461 -s 29 -d -1 -p tcp -e 1 -c 2 -a 0 -i 2 -k AGT
r -t 0.221165470 -s 28 -d -1 -p tcp -e 1 -c 2 -a 0 -i 2 -k RTR
r -t 0.221165470 -s 28 -d -1 -p tcp -e 1 -c 2 -a 0 -i 2 -k AGT
r -t 0.221165470 -s 15 -d -1 -p tcp -e 1 -c 2 -a 0 -i 2 -k RTR
r -t 0.221165470 -s 15 -d -1 -p tcp -e 1 -c 2 -a 0 -i 2 -k AGT
r -t 0.221165473 -s 0 -d -1 -p tcp -e 1 -c 2 -a 0 -i 2 -k RTR
r -t 0.221165473 -s 0 -d -1 -p tcp -e 1 -c 2 -a 0 -i 2 -k AGT
r -t 0.221165484 -s 25 -d -1 -p tcp -e 1 -c 2 -a 0 -i 2 -k RTR
r -t 0.221165484 -s 25 -d -1 -p tcp -e 1 -c 2 -a 0 -i 2 -k AGT
r -t 0.221165503 -s 7 -d -1 -p tcp -e 1 -c 2 -a 0 -i 2 -k RTR
r -t 0.221165503 -s 7 -d -1 -p tcp -e 1 -c 2 -a 0 -i 2 -k AGT
r -t 0.221165518 -s 12 -d -1 -p tcp -e 1 -c 2 -a 0 -i 2 -k RTR
r -t 0.221165518 -s 12 -d -1 -p tcp -e 1 -c 2 -a 0 -i 2 -k AGT
r -t 0.221165519 -s 19 -d -1 -p tcp -e 1 -c 2 -a 0 -i 2 -k RTR
r -t 0.221165519 -s 19 -d -1 -p tcp -e 1 -c 2 -a 0 -i 2 -k AGT
r -t 0.221165520 -s 27 -d -1 -p tcp -e 1 -c 2 -a 0 -i 2 -k RTR
r -t 0.221165520 -s 27 -d -1 -p tcp -e 1 -c 2 -a 0 -i 2 -k AGT
r -t 0.221165520 -s 18 -d -1 -p tcp -e 1 -c 2 -a 0 -i 2 -k RTR
r -t 0.221165520 -s 18 -d -1 -p tcp -e 1 -c 2 -a 0 -i 2 -k AGT
r -t 0.221165523 -s 35 -d -1 -p tcp -e 1 -c 2 -a 0 -i 2 -k RTR
r -t 0.221165523 -s 35 -d -1 -p tcp -e 1 -c 2 -a 0 -i 2 -k AGT
r -t 0.221165526 -s 11 -d -1 -p tcp -e 1 -c 2 -a 0 -i 2 -k RTR
r -t 0.221165526 -s 11 -d -1 -p tcp -e 1 -c 2 -a 0 -i 2 -k AGT
r -t 0.221165526 -s 24 -d -1 -p tcp -e 1 -c 2 -a 0 -i 2 -k RTR
r -t 0.221165526 -s 24 -d -1 -p tcp -e 1 -c 2 -a 0 -i 2 -k AGT
r -t 0.221165526 -s 17 -d -1 -p tcp -e 1 -c 2 -a 0 -i 2 -k RTR
r -t 0.221165526 -s 17 -d -1 -p tcp -e 1 -c 2 -a 0 -i 2 -k AGT
r -t 0.221165535 -s 33 -d -1 -p tcp -e 1 -c 2 -a 0 -i 2 -k RTR
r -t 0.221165535 -s 33 -d -1 -p tcp -e 1 -c 2 -a 0 -i 2 -k AGT
r -t 0.221165543 -s 20 -d -1 -p tcp -e 1 -c 2 -a 0 -i 2 -k RTR
r -t 0.221165543 -s 20 -d -1 -p tcp -e 1 -c 2 -a 0 -i 2 -k AGT
r -t 0.221165544 -s 10 -d -1 -p tcp -e 1 -c 2 -a 0 -i 2 -k RTR
r -t 0.221165544 -s 10 -d -1 -p tcp -e 1 -c 2 -a 0 -i 2 -k AGT
r -t 0.221165544 -s 42 -d -1 -p tcp -e 1 -c 2 -a 0 -i 2 -k RTR
r -t 0.221165544 -s 42 -d -1 -p tcp -e 1 -c 2 -a 0 -i 2 -k AGT
r -t 0.221165549 -s 43 -d -1 -p tcp -e 1 -c 2 -a 0 -i 2 -k RTR
r -t 0.221165549 -s 43 -d -1 -p tcp -e 1 -c 2 -a 0 -i 2 -k AGT
r -t 0.221165552 -s 21 -d -1 -p tcp -e 1 -c 2 -a 0 -i 2 -k RTR
r -t 0.221165552 -s 21 -d -1 -p tcp -e 1 -c 2 -a 0 -i 2 -k AGT
r -t 0.221165556 -s 41 -d -1 -p tcp -e 1 -c 2 -a 0 -i 2 -k RTR
r -t 0.221165556 -s 41 -d -1 -p tcp -e 1 -c 2 -a 0 -i 2 -k AGT
r -t 0.221165556 -s 36 -d -1 -p tcp -e 1 -c 2 -a 0 -i 2 -k RTR
r -t 0.221165556 -s 36 -d -1 -p tcp -e 1 -c 2 -a 0 -i 2 -k AGT
r -t 0.221165557 -s 34 -d -1 -p tcp -e 1 -c 2 -a 0 -i 2 -k RTR
r -t 0.221165557 -s 34 -d -1 -p tcp -e 1 -c 2 -a 0 -i 2 -k AGT
r -t 0.221165562 -s 9 -d -1 -p tcp -e 1 -c 2 -a 0 -i 2 -k RTR
r -t 0.221165562 -s 9 -d -1 -p tcp -e 1 -c 2 -a 0 -i 2 -k AGT
r -t 0.221165563 -s 26 -d -1 -p tcp -e 1 -c 2 -a 0 -i 2 -k RTR
r -t 0.221165563 -s 26 -d -1 -p tcp -e 1 -c 2 -a 0 -i 2 -k AGT
r -t 0.221165566 -s 37 -d -1 -p tcp -e 1 -c 2 -a 0 -i 2 -k RTR
r -t 0.221165566 -s 37 -d -1 -p tcp -e 1 -c 2 -a 0 -i 2 -k AGT
r -t 0.221165566 -s 1 -d -1 -p tcp -e 1 -c 2 -a 0 -i 2 -k RTR
r -t 0.221165566 -s 1 -d -1 -p tcp -e 1 -c 2 -a 0 -i 2 -k AGT
r -t 0.221165568 -s 4 -d -1 -p tcp -e 1 -c 2 -a 0 -i 2 -k RTR
r -t 0.221165568 -s 4 -d -1 -p tcp -e 1 -c 2 -a 0 -i 2 -k AGT
r -t 0.221165580 -s 22 -d -1 -p tcp -e 1 -c 2 -a 0 -i 2 -k RTR
r -t 0.221165580 -s 22 -d -1 -p tcp -e 1 -c 2 -a 0 -i 2 -k AGT
r -t 0.221165584 -s 38 -d -1 -p tcp -e 1 -c 2 -a 0 -i 2 -k RTR
r -t 0.221165584 -s 38 -d -1 -p tcp -e 1 -c 2 -a 0 -i 2 -k AGT
r -t 0.221165588 -s 2 -d -1 -p tcp -e 1 -c 2 -a 0 -i 2 -k RTR
r -t 0.221165588 -s 2 -d -1 -p tcp -e 1 -c 2 -a 0 -i 2 -k AGT
r -t 0.221165592 -s 8 -d -1 -p tcp -e 1 -c 2 -a 0 -i 2 -k RTR
r -t 0.221165592 -s 8 -d -1 -p tcp -e 1 -c 2 -a 0 -i 2 -k AGT
r -t 0.221165596 -s 3 -d -1 -p tcp -e 1 -c 2 -a 0 -i 2 -k RTR
r -t 0.221165596 -s 3 -d -1 -p tcp -e 1 -c 2 -a 0 -i 2 -k AGT
r -t 0.221165597 -s 39 -d -1 -p tcp -e 1 -c 2 -a 0 -i 2 -k RTR
r -t 0.221165597 -s 39 -d -1 -p tcp -e 1 -c 2 -a 0 -i 2 -k AGT
r -t 0.221165612 -s 6 -d -1 -p tcp -e 1 -c 2 -a 0 -i 2 -k RTR
r -t 0.221165612 -s 6 -d -1 -p tcp -e 1 -c 2 -a 0 -i 2 -k AGT
r -t 0.221165614 -s 32 -d -1 -p tcp -e 1 -c 2 -a 0 -i 2 -k RTR
r -t 0.221165614 -s 32 -d -1 -p tcp -e 1 -c 2 -a 0 -i 2 -k AGT
r -t 0.221165618 -s 13 -d -1 -p tcp -e 1 -c 2 -a 0 -i 2 -k RTR
r -t 0.221165618 -s 13 -d -1 -p tcp -e 1 -c 2 -a 0 -i 2 -k AGT
r -t 0.221165624 -s 40 -d -1 -p tcp -e 1 -c 2 -a 0 -i 2 -k RTR
r -t 0.221165624 -s 40 -d -1 -p tcp -e 1 -c 2 -a 0 -i 2 -k AGT
r -t 0.221165632 -s 16 -d -1 -p tcp -e 1 -c 2 -a 0 -i 2 -k RTR
r -t 0.221165632 -s 16 -d -1 -p tcp -e 1 -c 2 -a 0 -i 2 -k AGT
r -t 0.221165634 -s 23 -d -1 -p tcp -e 1 -c 2 -a 0 -i 2 -k RTR
r -t 0.221165634 -s 23 -d -1 -p tcp -e 1 -c 2 -a 0 -i 2 -k AGT
r -t 0.221165638 -s 14 -d -1 -p tcp -e 1 -c 2 -a 0 -i 2 -k RTR
r -t 0.221165638 -s 14 -d -1 -p tcp -e 1 -c 2 -a 0 -i 2 -k AGT
r -t 0.221165671 -s 30 -d -1 -p tcp -e 1 -c 2 -a 0 -i 2 -k RTR
r -t 0.221165671 -s 30 -d -1 -p tcp -e 1 -c 2 -a 0 -i 2 -k AGT
+ -t 0.571461688 -s 14 -d -1 -p tcp -e 1 -c 2 -a 0 -i 3 -k AGT 
- -t 0.571461688 -s 14 -d -1 -p tcp -e 1 -c 2 -a 0 -i 3 -k AGT
h -t 0.571461688 -s 14 -d -1 -p tcp -e 1 -c 2 -a 0 -i 3 -k AGT
r -t 0.571461688 -s 14 -d -1 -p tcp -e 1 -c 2 -a 0 -i 3 -k RTR
+ -t 0.571461688 -s 14 -d -1 -p tcp -e 1 -c 2 -a 0 -i 3 -k RTR 
- -t 0.571461688 -s 14 -d -1 -p tcp -e 1 -c 2 -a 0 -i 3 -k RTR
h -t 0.571461688 -s 14 -d -1 -p tcp -e 1 -c 2 -a 0 -i 3 -k RTR
+ -t 0.571486688 -s 14 -d -1 -p tcp -e 21 -c 2 -a 0 -i 3 -k MAC 
- -t 0.571486688 -s 14 -d -1 -p tcp -e 21 -c 2 -a 0 -i 3 -k MAC
h -t 0.571486688 -s 14 -d -1 -p tcp -e 21 -c 2 -a 0 -i 3 -k MAC
r -t 0.571570721 -s 40 -d -1 -p tcp -e 1 -c 2 -a 0 -i 3 -k MAC
r -t 0.571570754 -s 32 -d -1 -p tcp -e 1 -c 2 -a 0 -i 3 -k MAC
r -t 0.571570772 -s 4 -d -1 -p tcp -e 1 -c 2 -a 0 -i 3 -k MAC
r -t 0.571570792 -s 33 -d -1 -p tcp -e 1 -c 2 -a 0 -i 3 -k MAC
r -t 0.571570817 -s 10 -d -1 -p tcp -e 1 -c 2 -a 0 -i 3 -k MAC
r -t 0.571570821 -s 18 -d -1 -p tcp -e 1 -c 2 -a 0 -i 3 -k MAC
r -t 0.571570827 -s 24 -d -1 -p tcp -e 1 -c 2 -a 0 -i 3 -k MAC
r -t 0.571570834 -s 17 -d -1 -p tcp -e 1 -c 2 -a 0 -i 3 -k MAC
r -t 0.571570837 -s 37 -d -1 -p tcp -e 1 -c 2 -a 0 -i 3 -k MAC
r -t 0.571570850 -s 25 -d -1 -p tcp -e 1 -c 2 -a 0 -i 3 -k MAC
r -t 0.571570867 -s 28 -d -1 -p tcp -e 1 -c 2 -a 0 -i 3 -k MAC
r -t 0.571570867 -s 9 -d -1 -p tcp -e 1 -c 2 -a 0 -i 3 -k MAC
r -t 0.571570873 -s 11 -d -1 -p tcp -e 1 -c 2 -a 0 -i 3 -k MAC
r -t 0.571570880 -s 27 -d -1 -p tcp -e 1 -c 2 -a 0 -i 3 -k MAC
r -t 0.571570885 -s 23 -d -1 -p tcp -e 1 -c 2 -a 0 -i 3 -k MAC
r -t 0.571570888 -s 7 -d -1 -p tcp -e 1 -c 2 -a 0 -i 3 -k MAC
r -t 0.571570888 -s 0 -d -1 -p tcp -e 1 -c 2 -a 0 -i 3 -k MAC
r -t 0.571570904 -s 29 -d -1 -p tcp -e 1 -c 2 -a 0 -i 3 -k MAC
r -t 0.571570905 -s 16 -d -1 -p tcp -e 1 -c 2 -a 0 -i 3 -k MAC
r -t 0.571570915 -s 1 -d -1 -p tcp -e 1 -c 2 -a 0 -i 3 -k MAC
r -t 0.571570916 -s 41 -d -1 -p tcp -e 1 -c 2 -a 0 -i 3 -k MAC
r -t 0.571570934 -s 15 -d -1 -p tcp -e 1 -c 2 -a 0 -i 3 -k MAC
r -t 0.571570934 -s 42 -d -1 -p tcp -e 1 -c 2 -a 0 -i 3 -k MAC
r -t 0.571570936 -s 20 -d -1 -p tcp -e 1 -c 2 -a 0 -i 3 -k MAC
r -t 0.571570951 -s 34 -d -1 -p tcp -e 1 -c 2 -a 0 -i 3 -k MAC
r -t 0.571570976 -s 12 -d -1 -p tcp -e 1 -c 2 -a 0 -i 3 -k MAC
r -t 0.571570978 -s 2 -d -1 -p tcp -e 1 -c 2 -a 0 -i 3 -k MAC
r -t 0.571570980 -s 35 -d -1 -p tcp -e 1 -c 2 -a 0 -i 3 -k MAC
r -t 0.571570983 -s 19 -d -1 -p tcp -e 1 -c 2 -a 0 -i 3 -k MAC
r -t 0.571570987 -s 43 -d -1 -p tcp -e 1 -c 2 -a 0 -i 3 -k MAC
r -t 0.571570990 -s 13 -d -1 -p tcp -e 1 -c 2 -a 0 -i 3 -k MAC
r -t 0.571570990 -s 26 -d -1 -p tcp -e 1 -c 2 -a 0 -i 3 -k MAC
r -t 0.571570991 -s 8 -d -1 -p tcp -e 1 -c 2 -a 0 -i 3 -k MAC
r -t 0.571570999 -s 39 -d -1 -p tcp -e 1 -c 2 -a 0 -i 3 -k MAC
r -t 0.571571004 -s 21 -d -1 -p tcp -e 1 -c 2 -a 0 -i 3 -k MAC
r -t 0.571571018 -s 36 -d -1 -p tcp -e 1 -c 2 -a 0 -i 3 -k MAC
r -t 0.571571023 -s 38 -d -1 -p tcp -e 1 -c 2 -a 0 -i 3 -k MAC
r -t 0.571571025 -s 3 -d -1 -p tcp -e 1 -c 2 -a 0 -i 3 -k MAC
r -t 0.571571040 -s 22 -d -1 -p tcp -e 1 -c 2 -a 0 -i 3 -k MAC
r -t 0.571571057 -s 6 -d -1 -p tcp -e 1 -c 2 -a 0 -i 3 -k MAC
r -t 0.571571120 -s 30 -d -1 -p tcp -e 1 -c 2 -a 0 -i 3 -k MAC
r -t 0.571595721 -s 40 -d -1 -p tcp -e 1 -c 2 -a 0 -i 3 -k RTR
r -t 0.571595721 -s 40 -d -1 -p tcp -e 1 -c 2 -a 0 -i 3 -k AGT
r -t 0.571595754 -s 32 -d -1 -p tcp -e 1 -c 2 -a 0 -i 3 -k RTR
r -t 0.571595754 -s 32 -d -1 -p tcp -e 1 -c 2 -a 0 -i 3 -k AGT
r -t 0.571595772 -s 4 -d -1 -p tcp -e 1 -c 2 -a 0 -i 3 -k RTR
r -t 0.571595772 -s 4 -d -1 -p tcp -e 1 -c 2 -a 0 -i 3 -k AGT
r -t 0.571595792 -s 33 -d -1 -p tcp -e 1 -c 2 -a 0 -i 3 -k RTR