s -t 0.099454572 -Hs 1 -Hd -2 -Ni 1 -Nx 94.94 -Ny 70.29 -Nz 0.00 -Ne 1000.000000 -Nl AGT -Nw --- -Ma 0 -Md 1000000 -Ms 0 -Mt 0 -Is 1.0 -Id -1.0 -It tcp -Il 0 -If 0 -Ii 0 -Iv 32 -Pn tcp -Ps 0 -Pa 0 -Pf 0 -Po 0 
r -t 0.099454572 -Hs 1 -Hd -2 -Ni 1 -Nx 94.94 -Ny 70.29 -Nz 0.00 -Ne 1000.000000 -Nl RTR -Nw --- -Ma 0 -Md 1000000 -Ms 0 -Mt 0 -Is 1.0 -Id -1.0 -It tcp -Il 0 -If 0 -Ii 0 -Iv 32 -Pn tcp -Ps 0 -Pa 0 -Pf 0 -Po 0 
s -t 0.099454572 -Hs 1 -Hd -2 -Ni 1 -Nx 94.94 -Ny 70.29 -Nz 0.00 -Ne 1000.000000 -Nl RTR -Nw --- -Ma 0 -Md 1000000 -Ms 0 -Mt 0 -Is 1.0 -Id -1.0 -It tcp -Il 0 -If 0 -Ii 0 -Iv 32 -Pn tcp -Ps 0 -Pa 0 -Pf 0 -Po 0 
s -t 0.099479572 -Hs 1 -Hd -2 -Ni 1 -Nx 94.94 -Ny 70.29 -Nz 0.00 -Ne 999.999838 -Nl MAC -Nw --- -Ma 0 -Md 1000000 -Ms ffff0008 -Mt 0 -Is 1.0 -Id -1.0 -It tcp -Il 20 -If 0 -Ii 0 -Iv 32 -Pn tcp -Ps 0 -Pa 0 -Pf 0 -Po 0 
N -t 0.099480 -n 4 -e 999.999836
N -t 0.099480 -n 3 -e 999.999836
N -t 0.099480 -n 5 -e 999.999836
N -t 0.099480 -n 2 -e 999.999836
N -t 0.099480 -n 0 -e 99.999960
r -t 0.099559662 -Hs 4 -Hd -2 -Ni 4 -Nx 67.99 -Ny 68.38 -Nz 0.00 -Ne 999.999836 -Nl MAC -Nw --- -Ma 0 -Md 1000000 -Ms ffff0008 -Mt 0 -Is 1.0 -Id -1.0 -It tcp -Il 0 -If 0 -Ii 0 -Iv 32 -Pn tcp -Ps 0 -Pa 0 -Pf 1 -Po 0 
r -t 0.099559730 -Hs 3 -Hd -2 -Ni 3 -Nx 47.95 -Ny 64.39 -Nz 0.00 -Ne 999.999836 -Nl MAC -Nw --- -Ma 0 -Md 1000000 -Ms ffff0008 -Mt 0 -Is 1.0 -Id -1.0 -It tcp -Il 0 -If 0 -Ii 0 -Iv 32 -Pn tcp -Ps 0 -Pa 0 -Pf 1 -Po 0 
r -t 0.099559774 -Hs 5 -Hd -2 -Ni 5 -Nx 79.20 -Ny 11.61 -Nz 0.00 -Ne 999.999836 -Nl MAC -Nw --- -Ma 0 -Md 1000000 -Ms ffff0008 -Mt 0 -Is 1.0 -Id -1.0 -It tcp -Il 0 -If 0 -Ii 0 -Iv 32 -Pn tcp -Ps 0 -Pa 0 -Pf 1 -Po 0 
r -t 0.099559843 -Hs 2 -Hd -2 -Ni 2 -Nx 16.13 -Ny 50.04 -Nz 0.00 -Ne 999.999836 -Nl MAC -Nw --- -Ma 0 -Md 1000000 -Ms ffff0008 -Mt 0 -Is 1.0 -Id -1.0 -It tcp -Il 0 -If 0 -Ii 0 -Iv 32 -Pn tcp -Ps 0 -Pa 0 -Pf 1 -Po 0 
r -t 0.099559873 -Hs 0 -Hd -2 -Ni 0 -Nx 20.00 -Ny 20.00 -Nz 0.00 -Ne 99.999960 -Nl MAC -Nw --- -Ma 0 -Md 1000000 -Ms ffff0008 -Mt 0 -Is 1.0 -Id -1.0 -It tcp -Il 0 -If 0 -Ii 0 -Iv 32 -Pn tcp -Ps 0 -Pa 0 -Pf 1 -Po 0 
r -t 0.099584662 -Hs 4 -Hd -2 -Ni 4 -Nx 67.99 -Ny 68.38 -Nz 0.00 -Ne 999.999836 -Nl RTR -Nw --- -Ma 0 -Md 1000000 -Ms ffff0008 -Mt 0 -Is 1.0 -Id -1.0 -It tcp -Il 0 -If 0 -Ii 0 -Iv 32 -Pn tcp -Ps 0 -Pa 0 -Pf 1 -Po 0 
r -t 0.099584662 -Hs 4 -Hd -2 -Ni 4 -Nx 67.99 -Ny 68.38 -Nz 0.00 -Ne 999.999836 -Nl AGT -Nw --- -Ma 0 -Md 1000000 -Ms ffff0008 -Mt 0 -Is 1.0 -Id -1.0 -It tcp -Il 0 -If 0 -Ii 0 -Iv 32 -Pn tcp -Ps 0 -Pa 0 -Pf 1 -Po 0 
r -t 0.099584730 -Hs 3 -Hd -2 -Ni 3 -Nx 47.95 -Ny 64.39 -Nz 0.00 -Ne 999.999836 -Nl RTR -Nw --- -Ma 0 -Md 1000000 -Ms ffff0008 -Mt 0 -Is 1.0 -Id -1.0 -It tcp -Il 0 -If 0 -Ii 0 -Iv 32 -Pn tcp -Ps 0 -Pa 0 -Pf 1 -Po 0 
r -t 0.099584730 -Hs 3 -Hd -2 -Ni 3 -Nx 47.95 -Ny 64.39 -Nz 0.00 -Ne 999.999836 -Nl AGT -Nw --- -Ma 0 -Md 1000000 -Ms ffff0008 -Mt 0 -Is 1.0 -Id -1.0 -It tcp -Il 0 -If 0 -Ii 0 -Iv 32 -Pn tcp -Ps 0 -Pa 0 -Pf 1 -Po 0 
r -t 0.099584774 -Hs 5 -Hd -2 -Ni 5 -Nx 79.20 -Ny 11.61 -Nz 0.00 -Ne 999.999836 -Nl RTR -Nw --- -Ma 0 -Md 1000000 -Ms ffff0008 -Mt 0 -Is 1.0 -Id -1.0 -It tcp -Il 0 -If 0 -Ii 0 -Iv 32 -Pn tcp -Ps 0 -Pa 0 -Pf 1 -Po 0 
r -t 0.099584774 -Hs 5 -Hd -2 -Ni 5 -Nx 79.20 -Ny 11.61 -Nz 0.00 -Ne 999.999836 -Nl AGT -Nw --- -Ma 0 -Md 1000000 -Ms ffff0008 -Mt 0 -Is 1.0 -Id -1.0 -It tcp -Il 0 -If 0 -Ii 0 -Iv 32 -Pn tcp -Ps 0 -Pa 0 -Pf 1 -Po 0 
r -t 0.099584843 -Hs 2 -Hd -2 -Ni 2 -Nx 16.13 -Ny 50.04 -Nz 0.00 -Ne 999.999836 -Nl RTR -Nw --- -Ma 0 -Md 1000000 -Ms ffff0008 -Mt 0 -Is 1.0 -Id -1.0 -It tcp -Il 0 -If 0 -Ii 0 -Iv 32 -Pn tcp -Ps 0 -Pa 0 -Pf 1 -Po 0 
r -t 0.099584843 -Hs 2 -Hd -2 -Ni 2 -Nx 16.13 -Ny 50.04 -Nz 0.00 -Ne 999.999836 -Nl AGT -Nw --- -Ma 0 -Md 1000000 -Ms ffff0008 -Mt 0 -Is 1.0 -Id -1.0 -It tcp -Il 0 -If 0 -Ii 0 -Iv 32 -Pn tcp -Ps 0 -Pa 0 -Pf 1 -Po 0 
r -t 0.099584873 -Hs 0 -Hd -2 -Ni 0 -Nx 20.00 -Ny 20.00 -Nz 0.00 -Ne 99.999960 -Nl RTR -Nw --- -Ma 0 -Md 1000000 -Ms ffff0008 -Mt 0 -Is 1.0 -Id -1.0 -It tcp -Il 0 -If 0 -Ii 0 -Iv 32 -Pn tcp -Ps 0 -Pa 0 -Pf 1 -Po 0 
r -t 0.099584873 -Hs 0 -Hd -2 -Ni 0 -Nx 20.00 -Ny 20.00 -Nz 0.00 -Ne 99.999960 -Nl AGT -Nw --- -Ma 0 -Md 1000000 -Ms ffff0008 -Mt 0 -Is 1.0 -Id -1.0 -It tcp -Il 0 -If 0 -Ii 0 -Iv 32 -Pn tcp -Ps 0 -Pa 0 -Pf 1 -Po 0 
s -t 0.353584234 -Hs 4 -Hd -2 -Ni 4 -Nx 67.99 -Ny 68.38 -Nz 0.00 -Ne 999.996098 -Nl AGT -Nw --- -Ma 0 -Md 4000000 -Ms 0 -Mt 0 -Is 4.0 -Id -1.0 -It tcp -Il 0 -If 0 -Ii 1 -Iv 32 -Pn tcp -Ps 0 -Pa 0 -Pf 0 -Po 0 
r -t 0.353584234 -Hs 4 -Hd -2 -Ni 4 -Nx 67.99 -Ny 68.38 -Nz 0.00 -Ne 999.996098 -Nl RTR -Nw --- -Ma 0 -Md 4000000 -Ms 0 -Mt 0 -Is 4.0 -Id -1.0 -It tcp -Il 0 -If 0 -Ii 1 -Iv 32 -Pn tcp -Ps 0 -Pa 0 -Pf 0 -Po 0 
s -t 0.353584234 -Hs 4 -Hd -2 -Ni 4 -Nx 67.99 -Ny 68.38 -Nz 0.00 -Ne 999.996098 -Nl RTR -Nw --- -Ma 0 -Md 4000000 -Ms 0 -Mt 0 -Is 4.0 -Id -1.0 -It tcp -Il 0 -If 0 -Ii 1 -Iv 32 -Pn tcp -Ps 0 -Pa 0 -Pf 0 -Po 0 
s -t 0.353609234 -Hs 4 -Hd -2 -Ni 4 -Nx 67.99 -Ny 68.38 -Nz 0.00 -Ne 999.995936 -Nl MAC -Nw --- -Ma 0 -Md 4000000 -Ms ffff0008 -Mt 0 -Is 4.0 -Id -1.0 -It tcp -Il 20 -If 0 -Ii 1 -Iv 32 -Pn tcp -Ps 0 -Pa 0 -Pf 0 -Po 0 
N -t 0.353609 -n 3 -e 999.995934
N -t 0.353609 -n 1 -e 999.995936
N -t 0.353609 -n 2 -e 999.995934
N -t 0.353609 -n 5 -e 999.995934
N -t 0.353609 -n 0 -e 99.999920
r -t 0.353689302 -Hs 3 -Hd -2 -Ni 3 -Nx 47.95 -Ny 64.39 -Nz 0.00 -Ne 999.995934 -Nl MAC -Nw --- -Ma 0 -Md 4000000 -Ms ffff0008 -Mt 0 -Is 4.0 -Id -1.0 -It tcp -Il 0 -If 0 -Ii 1 -Iv 32 -Pn tcp -Ps 0 -Pa 0 -Pf 1 -Po 0 
r -t 0.353689324 -Hs 1 -Hd -2 -Ni 1 -Nx 94.94 -Ny 70.29 -Nz 0.00 -Ne 999.995936 -Nl MAC -Nw --- -Ma 0 -Md 4000000 -Ms ffff0008 -Mt 0 -Is 4.0 -Id -1.0 -It tcp -Il 0 -If 0 -Ii 1 -Iv 32 -Pn tcp -Ps 0 -Pa 0 -Pf 1 -Po 0 
r -t 0.353689417 -Hs 2 -Hd -2 -Ni 2 -Nx 16.13 -Ny 50.04 -Nz 0.00 -Ne 999.995934 -Nl MAC -Nw --- -Ma 0 -Md 4000000 -Ms ffff0008 -Mt 0 -Is 4.0 -Id -1.0 -It tcp -Il 0 -If 0 -Ii 1 -Iv 32 -Pn tcp -Ps 0 -Pa 0 -Pf 1 -Po 0 
r -t 0.353689426 -Hs 5 -Hd -2 -Ni 5 -Nx 79.20 -Ny 11.61 -Nz 0.00 -Ne 999.995934 -Nl MAC -Nw --- -Ma 0 -Md 4000000 -Ms ffff0008 -Mt 0 -Is 4.0 -Id -1.0 -It tcp -Il 0 -If 0 -Ii 1 -Iv 32 -Pn tcp -Ps 0 -Pa 0 -Pf 1 -Po 0 
r -t 0.353689461 -Hs 0 -Hd -2 -Ni 0 -Nx 20.00 -Ny 20.00 -Nz 0.00 -Ne 99.999920 -Nl MAC -Nw --- -Ma 0 -Md 4000000 -Ms ffff0008 -Mt 0 -Is 4.0 -Id -1.0 -It tcp -Il 0 -If 0 -Ii 1 -Iv 32 -Pn tcp -Ps 0 -Pa 0 -Pf 1 -Po 0 
r -t 0.353714302 -Hs 3 -Hd -2 -Ni 3 -Nx 47.95 -Ny 64.39 -Nz 0.00 -Ne 999.995934 -Nl RTR -Nw --- -Ma 0 -Md 4000000 -Ms ffff0008 -Mt 0 -Is 4.0 -Id -1.0 -It tcp -Il 0 -If 0 -Ii 1 -Iv 32 -Pn tcp -Ps 0 -Pa 0 -Pf 1 -Po 0 
r -t 0.353714302 -Hs 3 -Hd -2 -Ni 3 -Nx 47.95 -Ny 64.39 -Nz 0.00 -Ne 999.995934 -Nl AGT -Nw --- -Ma 0 -Md 4000000 -Ms ffff0008 -Mt 0 -Is 4.0 -Id -1.0 -It tcp -Il 0 -If 0 -Ii 1 -Iv 32 -Pn tcp -Ps 0 -Pa 0 -Pf 1 -Po 0 
r -t 0.353714324 -Hs 1 -Hd -2 -Ni 1 -Nx 94.94 -Ny 70.29 -Nz 0.00 -Ne 999.995936 -Nl RTR -Nw --- -Ma 0 -Md 4000000 -Ms ffff0008 -Mt 0 -Is 4.0 -Id -1.0 -It tcp -Il 0 -If 0 -Ii 1 -Iv 32 -Pn tcp -Ps 0 -Pa 0 -Pf 1 -Po 0 
r -t 0.353714324 -Hs 1 -Hd -2 -Ni 1 -Nx 94.94 -Ny 70.29 -Nz 0.00 -Ne 999.995936 -Nl AGT -Nw --- -Ma 0 -Md 4000000 -Ms ffff0008 -Mt 0 -Is 4.0 -Id -1.0 -It tcp -Il 0 -If 0 -Ii 1 -Iv 32 -Pn tcp -Ps 0 -Pa 0 -Pf 1 -Po 0 
r -t 0.353714417 -Hs 2 -Hd -2 -Ni 2 -Nx 16.13 -Ny 50.04 -Nz 0.00 -Ne 999.995934 -Nl RTR -Nw --- -Ma 0 -Md 4000000 -Ms ffff0008 -Mt 0 -Is 4.0 -Id -1.0 -It tcp -Il 0 -If 0 -Ii 1 -Iv 32 -Pn tcp -Ps 0 -Pa 0 -Pf 1 -Po 0 
r -t 0.353714417 -Hs 2 -Hd -2 -Ni 2 -Nx 16.13 -Ny 50.04 -Nz 0.00 -Ne 999.995934 -Nl AGT -Nw --- -Ma 0 -Md 4000000 -Ms ffff0008 -Mt 0 -Is 4.0 -Id -1.0 -It tcp -Il 0 -If 0 -Ii 1 -Iv 32 -Pn tcp -Ps 0 -Pa 0 -Pf 1 -Po 0 
r -t 0.353714426 -Hs 5 -Hd -2 -Ni 5 -Nx 79.20 -Ny 11.61 -Nz 0.00 -Ne 999.995934 -Nl RTR -Nw --- -Ma 0 -Md 4000000 -Ms ffff0008 -Mt 0 -Is 4.0 -Id -1.0 -It tcp -Il 0 -If 0 -Ii 1 -Iv 32 -Pn tcp -Ps 0 -Pa 0 -Pf 1 -Po 0 
r -t 0.353714426 -Hs 5 -Hd -2 -Ni 5 -Nx 79.20 -Ny 11.61 -Nz 0.00 -Ne 999.995934 -Nl AGT -Nw --- -Ma 0 -Md 4000000 -Ms ffff0008 -Mt 0 -Is 4.0 -Id -1.0 -It tcp -Il 0 -If 0 -Ii 1 -Iv 32 -Pn tcp -Ps 0 -Pa 0 -Pf 1 -Po 0 
r -t 0.353714461 -Hs 0 -Hd -2 -Ni 0 -Nx 20.00 -Ny 20.00 -Nz 0.00 -Ne 99.999920 -Nl RTR -Nw --- -Ma 0 -Md 4000000 -Ms ffff0008 -Mt 0 -Is 4.0 -Id -1.0 -It tcp -Il 0 -If 0 -Ii 1 -Iv 32 -Pn tcp -Ps 0 -Pa 0 -Pf 1 -Po 0 
r -t 0.353714461 -Hs 0 -Hd -2 -Ni 0 -Nx 20.00 -Ny 20.00 -Nz 0.00 -Ne 99.999920 -Nl AGT -Nw --- -Ma 0 -Md 4000000 -Ms ffff0008 -Mt 0 -Is 4.0 -Id -1.0 -It tcp -Il 0 -If 0 -Ii 1 -Iv 32 -Pn tcp -Ps 0 -Pa 0 -Pf 1 -Po 0 
s -t 0.461864811 -Hs 3 -Hd -2 -Ni 3 -Nx 47.95 -Ny 64.39 -Nz 0.00 -Ne 999.994471 -Nl AGT -Nw --- -Ma 0 -Md 3000000 -Ms 0 -Mt 0 -Is 3.0 -Id -1.0 -It tcp -Il 0 -If 0 -Ii 2 -Iv 32 -Pn tcp -Ps 0 -Pa 0 -Pf 0 -Po 0 
r -t 0.461864811 -Hs 3 -Hd -2 -Ni 3 -Nx 47.95 -Ny 64.39 -Nz 0.00 -Ne 999.994471 -Nl RTR -Nw --- -Ma 0 -Md 3000000 -Ms 0 -Mt 0 -Is 3.0 -Id -1.0 -It tcp -Il 0 -If 0 -Ii 2 -Iv 32 -Pn tcp -Ps 0 -Pa 0 -Pf 0 -Po 0 
s -t 0.461864811 -Hs 3 -Hd -2 -Ni 3 -Nx 47.95 -Ny 64.39 -Nz 0.00 -Ne 999.994471 -Nl RTR -Nw --- -Ma 0 -Md 3000000 -Ms 0 -Mt 0 -Is 3.0 -Id -1.0 -It tcp -Il 0 -If 0 -Ii 2 -Iv 32 -Pn tcp -Ps 0 -Pa 0 -Pf 0 -Po 0 
s -t 0.461889811 -Hs 3 -Hd -2 -Ni 3 -Nx 47.95 -Ny 64.39 -Nz 0.00 -Ne 999.994309 -Nl MAC -Nw --- -Ma 0 -Md 3000000 -Ms ffff0008 -Mt 0 -Is 3.0 -Id -1.0 -It tcp -Il 20 -If 0 -Ii 2 -Iv 32 -Pn tcp -Ps 0 -Pa 0 -Pf 0 -Po 0 
N -t 0.461890 -n 4 -e 999.994309
N -t 0.461890 -n 2 -e 999.994307
N -t 0.461890 -n 1 -e 999.994309
N -t 0.461890 -n 0 -e 99.999880
N -t 0.461890 -n 5 -e 999.994307
r -t 0.461969879 -Hs 4 -Hd -2 -Ni 4 -Nx 67.99 -Ny 68.38 -Nz 0.00 -Ne 999.994309 -Nl MAC -Nw --- -Ma 0 -Md 3000000 -Ms ffff0008 -Mt 0 -Is 3.0 -Id -1.0 -It tcp -Il 0 -If 0 -Ii 2 -Iv 32 -Pn tcp -Ps 0 -Pa 0 -Pf 1 -Po 0 
r -t 0.461969928 -Hs 2 -Hd -2 -Ni 2 -Nx 16.13 -Ny 50.04 -Nz 0.00 -Ne 999.994307 -Nl MAC -Nw --- -Ma 0 -Md 3000000 -Ms ffff0008 -Mt 0 -Is 3.0 -Id -1.0 -It tcp -Il 0 -If 0 -Ii 2 -Iv 32 -Pn tcp -Ps 0 -Pa 0 -Pf 1 -Po 0 
r -t 0.461969969 -Hs 1 -Hd -2 -Ni 1 -Nx 94.94 -Ny 70.29 -Nz 0.00 -Ne 999.994309 -Nl MAC -Nw --- -Ma 0 -Md 3000000 -Ms ffff0008 -Mt 0 -Is 3.0 -Id -1.0 -It tcp -Il 0 -If 0 -Ii 2 -Iv 32 -Pn tcp -Ps 0 -Pa 0 -Pf 1 -Po 0 
r -t 0.461969986 -Hs 0 -Hd -2 -Ni 0 -Nx 20.00 -Ny 20.00 -Nz 0.00 -Ne 99.999880 -Nl MAC -Nw --- -Ma 0 -Md 3000000 -Ms ffff0008 -Mt 0 -Is 3.0 -Id -1.0 -It tcp -Il 0 -If 0 -Ii 2 -Iv 32 -Pn tcp -Ps 0 -Pa 0 -Pf 1 -Po 0 
r -t 0.461970016 -Hs 5 -Hd -2 -Ni 5 -Nx 79.20 -Ny 11.61 -Nz 0.00 -Ne 999.994307 -Nl MAC -Nw --- -Ma 0 -Md 3000000 -Ms ffff0008 -Mt 0 -Is 3.0 -Id -1.0 -It tcp -Il 0 -If 0 -Ii 2 -Iv 32 -Pn tcp -Ps 0 -Pa 0 -Pf 1 -Po 0 
r -t 0.461994879 -Hs 4 -Hd -2 -Ni 4 -Nx 67.99 -Ny 68.38 -Nz 0.00 -Ne 999.994309 -Nl RTR -Nw --- -Ma 0 -Md 3000000 -Ms ffff0008 -Mt 0 -Is 3.0 -Id -1.0 -It tcp -Il 0 -If 0 -Ii 2 -Iv 32 -Pn tcp -Ps 0 -Pa 0 -Pf 1 -Po 0 
r -t 0.461994879 -Hs 4 -Hd -2 -Ni 4 -Nx 67.99 -Ny 68.38 -Nz 0.00 -Ne 999.994309 -Nl AGT -Nw --- -Ma 0 -Md 3000000 -Ms ffff0008 -Mt 0 -Is 3.0 -Id -1.0 -It tcp -Il 0 -If 0 -Ii 2 -Iv 32 -Pn tcp -Ps 0 -Pa 0 -Pf 1 -Po 0 
r -t 0.461994928 -Hs 2 -Hd -2 -Ni 2 -Nx 16.13 -Ny 50.04 -Nz 0.00 -Ne 999.994307 -Nl RTR -Nw --- -Ma 0 -Md 3000000 -Ms ffff0008 -Mt 0 -Is 3.0 -Id -1.0 -It tcp -Il 0 -If 0 -Ii 2 -Iv 32 -Pn tcp -Ps 0 -Pa 0 -Pf 1 -Po 0 
r -t 0.461994928 -Hs 2 -Hd -2 -Ni 2 -Nx 16.13 -Ny 50.04 -Nz 0.00 -Ne 999.994307 -Nl AGT -Nw --- -Ma 0 -Md 3000000 -Ms ffff0008 -Mt 0 -Is 3.0 -Id -1.0 -It tcp -Il 0 -If 0 -Ii 2 -Iv 32 -Pn tcp -Ps 0 -Pa 0 -Pf 1 -Po 0 
r -t 0.461994969 -Hs 1 -Hd -2 -Ni 1 -Nx 94.94 -Ny 70.29 -Nz 0.00 -Ne 999.994309 -Nl RTR -Nw --- -Ma 0 -Md 3000000 -Ms ffff0008 -Mt 0 -Is 3.0 -Id -1.0 -It tcp -Il 0 -If 0 -Ii 2 -Iv 32 -Pn tcp -Ps 0 -Pa 0 -Pf 1 -Po 0 
r -t 0.461994969 -Hs 1 -Hd -2 -Ni 1 -Nx 94.94 -Ny 70.29 -Nz 0.00 -Ne 999.994309 -Nl AGT -Nw --- -Ma 0 -Md 3000000 -Ms ffff0008 -Mt 0 -Is 3.0 -Id -1.0 -It tcp -Il 0 -If 0 -Ii 2 -Iv 32 -Pn tcp -Ps 0 -Pa 0 -Pf 1 -Po 0 
r -t 0.461994986 -Hs 0 -Hd -2 -Ni 0 -Nx 20.00 -Ny 20.00 -Nz 0.00 -Ne 99.999880 -Nl RTR -Nw --- -Ma 0 -Md 3000000 -Ms ffff0008 -Mt 0 -Is 3.0 -Id -1.0 -It tcp -Il 0 -If 0 -Ii 2 -Iv 32 -Pn tcp -Ps 0 -Pa 0 -Pf 1 -Po 0 
r -t 0.461994986 -Hs 0 -Hd -2 -Ni 0 -Nx 20.00 -Ny 20.00 -Nz 0.00 -Ne 99.999880 -Nl AGT -Nw --- -Ma 0 -Md 3000000 -Ms ffff0008 -Mt 0 -Is 3.0 -Id -1.0 -It tcp -Il 0 -If 0 -Ii 2 -Iv 32 -Pn tcp -Ps 0 -Pa 0 -Pf 1 -Po 0 
r -t 0.461995016 -Hs 5 -Hd -2 -Ni 5 -Nx 79.20 -Ny 11.61 -Nz 0.00 -Ne 999.994307 -Nl RTR -Nw --- -Ma 0 -Md 3000000 -Ms ffff0008 -Mt 0 -Is 3.0 -Id -1.0 -It tcp -Il 0 -If 0 -Ii 2 -Iv 32 -Pn tcp -Ps 0 -Pa 0 -Pf 1 -Po 0 
r -t 0.461995016 -Hs 5 -Hd -2 -Ni 5 -Nx 79.20 -Ny 11.61 -Nz 0.00 -Ne 999.994307 -Nl AGT -Nw --- -Ma 0 -Md 3000000 -Ms ffff0008 -Mt 0 -Is 3.0 -Id -1.0 -It tcp -Il 0 -If 0 -Ii 2 -Iv 32 -Pn tcp -Ps 0 -Pa 0 -Pf 1 -Po 0 
s -t 1.269745997 -Hs 2 -Hd -2 -Ni 2 -Nx 16.13 -Ny 50.04 -Nz 0.00 -Ne 999.981307 -Nl AGT -Nw --- -Ma 0 -Md 2000000 -Ms 0 -Mt 0 -Is 2.0 -Id -1.0 -It udp -Il 2 -If 0 -Ii 3 -Iv 32 
r -t 1.269745997 -Hs 2 -Hd -2 -Ni 2 -Nx 16.13 -Ny 50.04 -Nz 0.00 -Ne 999.981307 -Nl RTR -Nw --- -Ma 0 -Md 2000000 -Ms 0 -Mt 0 -Is 2.0 -Id -1.0 -It udp -Il 2 -If 0 -Ii 3 -Iv 32 
s -t 1.269745997 -Hs 2 -Hd -2 -Ni 2 -Nx 16.13 -Ny 50.04 -Nz 0.00 -Ne 999.981307 -Nl RTR -Nw --- -Ma 0 -Md 2000000 -Ms 0 -Mt 0 -Is 2.0 -Id -1.0 -It udp -Il 2 -If 0 -Ii 3 -Iv 32 
s -t 1.269770997 -Hs 2 -Hd -2 -Ni 2 -Nx 16.13 -Ny 50.04 -Nz 0.00 -Ne 999.981307 -Nl MAC -Nw --- -Ma 0 -Md 2000000 -Ms 8 -Mt 0 -Is 2.0 -Id -1.0 -It udp -Il 22 -If 0 -Ii 3 -Iv 32 
N -t 1.269771 -n 0 -e 99.999836
N -t 1.269771 -n 3 -e 999.981307
N -t 1.269771 -n 4 -e 999.981307
N -t 1.269771 -n 5 -e 999.981305
N -t 1.269771 -n 1 -e 999.981307
r -t 1.269859113 -Hs 3 -Hd -2 -Ni 3 -Nx 47.95 -Ny 64.39 -Nz 0.00 -Ne 999.981307 -Nl MAC -Nw --- -Ma 0 -Md 2000000 -Ms 8 -Mt 0 -Is 2.0 -Id -1.0 -It udp -Il 2 -If 0 -Ii 3 -Iv 32 
r -t 1.269884113 -Hs 3 -Hd -2 -Ni 3 -Nx 47.95 -Ny 64.39 -Nz 0.00 -Ne 999.981307 -Nl RTR -Nw --- -Ma 0 -Md 2000000 -Ms 8 -Mt 0 -Is 2.0 -Id -1.0 -It udp -Il 2 -If 0 -Ii 3 -Iv 32 
r -t 1.269884113 -Hs 3 -Hd -2 -Ni 3 -Nx 47.95 -Ny 64.39 -Nz 0.00 -Ne 999.981307 -Nl AGT -Nw --- -Ma 0 -Md 2000000 -Ms 8 -Mt 0 -Is 2.0 -Id -1.0 -It udp -Il 2 -If 0 -Ii 3 -Iv 32 
s -t 1.914889623 -Hs 3 -Hd -2 -Ni 3 -Nx 47.95 -Ny 64.39 -Nz 0.00 -Ne 999.970744 -Nl AGT -Nw --- -Ma 0 -Md 3000000 -Ms 0 -Mt 0 -Is 3.0 -Id -1.0 -It cbr -Il 2 -If 0 -Ii 4 -Iv 32 -Pn cbr -Pi 0 -Pf 0 -Po 0 
r -t 1.914889623 -Hs 3 -Hd -2 -Ni 3 -Nx 47.95 -Ny 64.39 -Nz 0.00 -Ne 999.970744 -Nl RTR -Nw --- -Ma 0 -Md 3000000 -Ms 0 -Mt 0 -Is 3.0 -Id -1.0 -It cbr -Il 2 -If 0 -Ii 4 -Iv 32 -Pn cbr -Pi 0 -Pf 0 -Po 0 
s -t 1.914889623 -Hs 3 -Hd -2 -Ni 3 -Nx 47.95 -Ny 64.39 -Nz 0.00 -Ne 999.970744 -Nl RTR -Nw --- -Ma 0 -Md 3000000 -Ms 0 -Mt 0 -Is 3.0 -Id -1.0 -It cbr -Il 2 -If 0 -Ii 4 -Iv 32 -Pn cbr -Pi 0 -Pf 0 -Po 0 
s -t 1.914914623 -Hs 3 -Hd -2 -Ni 3 -Nx 47.95 -Ny 64.39 -Nz 0.00 -Ne 999.970744 -Nl MAC -Nw --- -Ma 0 -Md 3000000 -Ms ffff0008 -Mt 0 -Is 3.0 -Id -1.0 -It cbr -Il 22 -If 0 -Ii 4 -Iv 32 -Pn cbr -Pi 0 -Pf 0 -Po 0 
N -t 1.914915 -n 4 -e 999.970742
N -t 1.914915 -n 2 -e 999.970742
N -t 1.914915 -n 1 -e 999.970742
N -t 1.914915 -n 0 -e 99.999792
N -t 1.914915 -n 5 -e 999.970740
r -t 1.915002691 -Hs 4 -Hd -2 -Ni 4 -Nx 67.99 -Ny 68.38 -Nz 0.00 -Ne 999.970742 -Nl MAC -Nw --- -Ma 0 -Md 3000000 -Ms ffff0008 -Mt 0 -Is 3.0 -Id -1.0 -It cbr -Il 2 -If 0 -Ii 4 -Iv 32 -Pn cbr -Pi 0 -Pf 1 -Po 0 
r -t 1.915002739 -Hs 2 -Hd -2 -Ni 2 -Nx 16.13 -Ny 50.04 -Nz 0.00 -Ne 999.970742 -Nl MAC -Nw --- -Ma 0 -Md 3000000 -Ms ffff0008 -Mt 0 -Is 3.0 -Id -1.0 -It cbr -Il 2 -If 0 -Ii 4 -Iv 32 -Pn cbr -Pi 0 -Pf 1 -Po 0 
r -t 1.915002781 -Hs 1 -Hd -2 -Ni 1 -Nx 94.94 -Ny 70.29 -Nz 0.00 -Ne 999.970742 -Nl MAC -Nw --- -Ma 0 -Md 3000000 -Ms ffff0008 -Mt 0 -Is 3.0 -Id -1.0 -It cbr -Il 2 -If 0 -Ii 4 -Iv 32 -Pn cbr -Pi 0 -Pf 1 -Po 0 
r -t 1.915002798 -Hs 0 -Hd -2 -Ni 0 -Nx 20.00 -Ny 20.00 -Nz 0.00 -Ne 99.999792 -Nl MAC -Nw --- -Ma 0 -Md 3000000 -Ms ffff0008 -Mt 0 -Is 3.0 -Id -1.0 -It cbr -Il 2 -If 0 -Ii 4 -Iv 32 -Pn cbr -Pi 0 -Pf 1 -Po 0 
r -t 1.915002827 -Hs 5 -Hd -2 -Ni 5 -Nx 79.20 -Ny 11.61 -Nz 0.00 -Ne 999.970740 -Nl MAC -Nw --- -Ma 0 -Md 3000000 -Ms ffff0008 -Mt 0 -Is 3.0 -Id -1.0 -It cbr -Il 2 -If 0 -Ii 4 -Iv 32 -Pn cbr -Pi 0 -Pf 1 -Po 0 
r -t 1.915027691 -Hs 4 -Hd -2 -Ni 4 -Nx 67.99 -Ny 68.38 -Nz 0.00 -Ne 999.970742 -Nl RTR -Nw --- -Ma 0 -Md 3000000 -Ms ffff0008 -Mt 0 -Is 3.0 -Id -1.0 -It cbr -Il 2 -If 0 -Ii 4 -Iv 32 -Pn cbr -Pi 0 -Pf 1 -Po 0 
r -t 1.915027691 -Hs 4 -Hd -2 -Ni 4 -Nx 67.99 -Ny 68.38 -Nz 0.00 -Ne 999.970742 -Nl AGT -Nw --- -Ma 0 -Md 3000000 -Ms ffff0008 -Mt 0 -Is 3.0 -Id -1.0 -It cbr -Il 2 -If 0 -Ii 4 -Iv 32 -Pn cbr -Pi 0 -Pf 1 -Po 0 
r -t 1.915027739 -Hs 2 -Hd -2 -Ni 2 -Nx 16.13 -Ny 50.04 -Nz 0.00 -Ne 999.970742 -Nl RTR -Nw --- -Ma 0 -Md 3000000 -Ms ffff0008 -Mt 0 -Is 3.0 -Id -1.0 -It cbr -Il 2 -If 0 -Ii 4 -Iv 32 -Pn cbr -Pi 0 -Pf 1 -Po 0 
r -t 1.915027739 -Hs 2 -Hd -2 -Ni 2 -Nx 16.13 -Ny 50.04 -Nz 0.00 -Ne 999.970742 -Nl AGT -Nw --- -Ma 0 -Md 3000000 -Ms ffff0008 -Mt 0 -Is 3.0 -Id -1.0 -It cbr -Il 2 -If 0 -Ii 4 -Iv 32 -Pn cbr -Pi 0 -Pf 1 -Po 0 
r -t 1.915027781 -Hs 1 -Hd -2 -Ni 1 -Nx 94.94 -Ny 70.29 -Nz 0.00 -Ne 999.970742 -Nl RTR -Nw --- -Ma 0 -Md 3000000 -Ms ffff0008 -Mt 0 -Is 3.0 -Id -1.0 -It cbr -Il 2 -If 0 -Ii 4 -Iv 32 -Pn cbr -Pi 0 -Pf 1 -Po 0 
r -t 1.915027781 -Hs 1 -Hd -2 -Ni 1 -Nx 94.94 -Ny 70.29 -Nz 0.00 -Ne 999.970742 -Nl AGT -Nw --- -Ma 0 -Md 3000000 -Ms ffff0008 -Mt 0 -Is 3.0 -Id -1.0 -It cbr -Il 2 -If 0 -Ii 4 -Iv 32 -Pn cbr -Pi 0 -Pf 1 -Po 0 
r -t 1.915027798 -Hs 0 -Hd -2 -Ni 0 -Nx 20.00 -Ny 20.00 -Nz 0.00 -Ne 99.999792 -Nl RTR -Nw --- -Ma 0 -Md 3000000 -Ms ffff0008 -Mt 0 -Is 3.0 -Id -1.0 -It cbr -Il 2 -If 0 -Ii 4 -Iv 32 -Pn cbr -Pi 0 -Pf 1 -Po 0 
r -t 1.915027798 -Hs 0 -Hd -2 -Ni 0 -Nx 20.00 -Ny 20.00 -Nz 0.00 -Ne 99.999792 -Nl AGT -Nw --- -Ma 0 -Md 3000000 -Ms ffff0008 -Mt 0 -Is 3.0 -Id -1.0 -It cbr -Il 2 -If 0 -Ii 4 -Iv 32 -Pn cbr -Pi 0 -Pf 1 -Po 0 
r -t 1.915027827 -Hs 5 -Hd -2 -Ni 5 -Nx 79.20 -Ny 11.61 -Nz 0.00 -Ne 999.970740 -Nl RTR -Nw --- -Ma 0 -Md 3000000 -Ms ffff0008 -Mt 0 -Is 3.0 -Id -1.0 -It cbr -Il 2 -If 0 -Ii 4 -Iv 32 -Pn cbr -Pi 0 -Pf 1 -Po 0 
r -t 1.915027827 -Hs 5 -Hd -2 -Ni 5 -Nx 79.20 -Ny 11.61 -Nz 0.00 -Ne 999.970740 -Nl AGT -Nw --- -Ma 0 -Md 3000000 -Ms ffff0008 -Mt 0 -Is 3.0 -Id -1.0 -It cbr -Il 2 -If 0 -Ii 4 -Iv 32 -Pn cbr -Pi 0 -Pf 1 -Po 0 
s -t 2.776532826 -Hs 5 -Hd -2 -Ni 5 -Nx 79.20 -Ny 11.61 -Nz 0.00 -Ne 999.956765 -Nl AGT -Nw --- -Ma 0 -Md 5000000 -Ms 0 -Mt 0 -Is 5.0 -Id -1.0 -It udp -Il 5 -If 0 -Ii 5 -Iv 32 
r -t 2.776532826 -Hs 5 -Hd -2 -Ni 5 -Nx 79.20 -Ny 11.61 -Nz 0.00 -Ne 999.956765 -Nl RTR -Nw --- -Ma 0 -Md 5000000 -Ms 0 -Mt 0 -Is 5.0 -Id -1.0 -It udp -Il 5 -If 0 -Ii 5 -Iv 32 
s -t 2.776532826 -Hs 5 -Hd -2 -Ni 5 -Nx 79.20 -Ny 11.61 -Nz 0.00 -Ne 999.956765 -Nl RTR -Nw --- -Ma 0 -Md 5000000 -Ms 0 -Mt 0 -Is 5.0 -Id -1.0 -It udp -Il 5 -If 0 -Ii 5 -Iv 32 
s -t 2.776557826 -Hs 5 -Hd -2 -Ni 5 -Nx 79.20 -Ny 11.61 -Nz 0.00 -Ne 999.956765 -Nl MAC -Nw --- -Ma 0 -Md 5000000 -Ms 8 -Mt 0 -Is 5.0 -Id -1.0 -It udp -Il 25 -If 0 -Ii 5 -Iv 32 
N -t 2.776558 -n 4 -e 999.956765
N -t 2.776558 -n 0 -e 99.999742
N -t 2.776558 -n 1 -e 999.956765
N -t 2.776558 -n 3 -e 999.956767
N -t 2.776558 -n 2 -e 999.956765
r -t 2.776658019 -Hs 4 -Hd -2 -Ni 4 -Nx 67.99 -Ny 68.38 -Nz 0.00 -Ne 999.956765 -Nl MAC -Nw --- -Ma 0 -Md 5000000 -Ms 8 -Mt 0 -Is 5.0 -Id -1.0 -It udp -Il 5 -If 0 -Ii 5 -Iv 32 
r -t 2.776683019 -Hs 4 -Hd -2 -Ni 4 -Nx 67.99 -Ny 68.38 -Nz 0.00 -Ne 999.956765 -Nl RTR -Nw --- -Ma 0 -Md 5000000 -Ms 8 -Mt 0 -Is 5.0 -Id -1.0 -It udp -Il 5 -If 0 -Ii 5 -Iv 32 
r -t 2.776683019 -Hs 4 -Hd -2 -Ni 4 -Nx 67.99 -Ny 68.38 -Nz 0.00 -Ne 999.956765 -Nl AGT -Nw --- -Ma 0 -Md 5000000 -Ms 8 -Mt 0 -Is 5.0 -Id -1.0 -It udp -Il 5 -If 0 -Ii 5 -Iv 32 
s -t 10.130227739 -Hs 2 -Hd -1558094704 -Ni 2 -Nx 16.13 -Ny 50.04 -Nz 0.00 -Ne 999.837327 -Nl AGT -Nw --- -Ma 0 -Md 2000000 -Ms 8fe6 -Mt 1a3 -Is 21984.-1560450611 -Id 21984.81 -It audio -Il -1597116448 -If 116 -Ii 21984 -Iv 0 
r -t 10.130227739 -Hs 2 -Hd -1558094704 -Ni 2 -Nx 16.13 -Ny 50.04 -Nz 0.00 -Ne 999.837327 -Nl RTR -Nw --- -Ma 0 -Md 2000000 -Ms 8fe6 -Mt 1a3 -Is 21984.-1560450611 -Id 21984.81 -It audio -Il -1597116448 -If 116 -Ii 21984 -Iv 0 
f -t 10.130227739 -Hs 2 -Hd -1558094704 -Ni 2 -Nx 16.13 -Ny 50.04 -Nz 0.00 -Ne 999.837327 -Nl RTR -Nw --- -Ma 0 -Md 2000000 -Ms 8fe6 -Mt 1a3 -Is 21984.-1560450611 -Id 21984.81 -It audio -Il -1597116448 -If 116 -Ii 21984 -Iv 0 
s -t 10.130252739 -Hs 2 -Hd -1558094704 -Ni 2 -Nx 16.13 -Ny 50.04 -Nz 0.00 -Ne 999.837327 -Nl MAC -Nw --- -Ma 0 -Md 2000000 -Ms 8 -Mt 1a3 -Is 21984.-1560450611 -Id 21984.81 -It audio -Il -1597116428 -If 116 -Ii 21984 -Iv 0 
N -t 10.130253 -n 0 -e 73.007126
N -t 10.130253 -n 3 -e 998.541684
N -t 10.130253 -n 4 -e 998.541681
N -t 10.130253 -n 5 -e 998.541682
N -t 10.130253 -n 1 -e 998.541681
s -t 20.159827739 -Hs 2 -Hd -1558094704 -Ni 2 -Nx 16.13 -Ny 50.04 -Nz 0.00 -Ne 119984.241577 -Nl AGT -Nw --- -Ma 0 -Md 2000000 -Ms 8fe6 -Mt 1a3 -Is 21984.-1560450611 -Id 21984.81 -It audio -Il -1597116448 -If 116 -Ii 21984 -Iv 0 
r -t 20.159827739 -Hs 2 -Hd -1558094704 -Ni 2 -Nx 16.13 -Ny 50.04 -Nz 0.00 -Ne 119984.241577 -Nl RTR -Nw --- -Ma 0 -Md 2000000 -Ms 8fe6 -Mt 1a3 -Is 21984.-1560450611 -Id 21984.81 -It audio -Il -1597116448 -If 116 -Ii 21984 -Iv 0 
f -t 20.159827739 -Hs 2 -Hd -1558094704 -Ni 2 -Nx 16.13 -Ny 50.04 -Nz 0.00 -Ne 119984.241577 -Nl RTR -Nw --- -Ma 0 -Md 2000000 -Ms 8fe6 -Mt 1a3 -Is 21984.-1560450611 -Id 21984.81 -It audio -Il -1597116448 -If 116 -Ii 21984 -Iv 0 
s -t 30.139027739 -Hs 2 -Hd -1558094704 -Ni 2 -Nx 16.13 -Ny 50.04 -Nz 0.00 -Ne 119984.079402 -Nl AGT -Nw --- -Ma 0 -Md 2000000 -Ms 8fe6 -Mt 1a3 -Is 21984.-1560450611 -Id 21984.81 -It audio -Il -1597116448 -If 116 -Ii 21984 -Iv 0 
r -t 30.139027739 -Hs 2 -Hd -1558094704 -Ni 2 -Nx 16.13 -Ny 50.04 -Nz 0.00 -Ne 119984.079402 -Nl RTR -Nw --- -Ma 0 -Md 2000000 -Ms 8fe6 -Mt 1a3 -Is 21984.-1560450611 -Id 21984.81 -It audio -Il -1597116448 -If 116 -Ii 21984 -Iv 0 
f -t 30.139027739 -Hs 2 -Hd -1558094704 -Ni 2 -Nx 16.13 -Ny 50.04 -Nz 0.00 -Ne 119984.079402 -Nl RTR -Nw --- -Ma 0 -Md 2000000 -Ms 8fe6 -Mt 1a3 -Is 21984.-1560450611 -Id 21984.81 -It audio -Il -1597116448 -If 116 -Ii 21984 -Iv 0 
s -t 40.168627739 -Hs 2 -Hd -1558094704 -Ni 2 -Nx 16.13 -Ny 50.04 -Nz 0.00 -Ne 119983.916414 -Nl AGT -Nw --- -Ma 0 -Md 2000000 -Ms 8fe6 -Mt 1a3 -Is 21984.-1560450611 -Id 21984.81 -It audio -Il -1597116448 -If 116 -Ii 21984 -Iv 0 
r -t 40.168627739 -Hs 2 -Hd -1558094704 -Ni 2 -Nx 16.13 -Ny 50.04 -Nz 0.00 -Ne 119983.916414 -Nl RTR -Nw --- -Ma 0 -Md 2000000 -Ms 8fe6 -Mt 1a3 -Is 21984.-1560450611 -Id 21984.81 -It audio -Il -1597116448 -If 116 -Ii 21984 -Iv 0 
f -t 40.168627739 -Hs 2 -Hd -1558094704 -Ni 2 -Nx 16.13 -Ny 50.04 -Nz 0.00 -Ne 119983.916414 -Nl RTR -Nw --- -Ma 0 -Md 2000000 -Ms 8fe6 -Mt 1a3 -Is 21984.-1560450611 -Id 21984.81 -It audio -Il -1597116448 -If 116 -Ii 21984 -Iv 0 
s -t 50.147827739 -Hs 2 -Hd -1558094704 -Ni 2 -Nx 16.13 -Ny 50.04 -Nz 0.00 -Ne 119983.754239 -Nl AGT -Nw --- -Ma 0 -Md 2000000 -Ms 8fe6 -Mt 1a3 -Is 21984.-1560450611 -Id 21984.81 -It audio -Il -1597116448 -If 116 -Ii 21984 -Iv 0 
r -t 50.147827739 -Hs 2 -Hd -1558094704 -Ni 2 -Nx 16.13 -Ny 50.04 -Nz 0.00 -Ne 119983.754239 -Nl RTR -Nw --- -Ma 0 -Md 2000000 -Ms 8fe6 -Mt 1a3 -Is 21984.-1560450611 -Id 21984.81 -It audio -Il -1597116448 -If 116 -Ii 21984 -Iv 0 
f -t 50.147827739 -Hs 2 -Hd -1558094704 -Ni 2 -Nx 16.13 -Ny 50.04 -Nz 0.00 -Ne 119983.754239 -Nl RTR -Nw --- -Ma 0 -Md 2000000 -Ms 8fe6 -Mt 1a3 -Is 21984.-1560450611 -Id 21984.81 -It audio -Il -1597116448 -If 116 -Ii 21984 -Iv 0 
s -t 60.177427739 -Hs 2 -Hd -1558094704 -Ni 2 -Nx 16.13 -Ny 50.04 -Nz 0.00 -Ne 119983.591252 -Nl AGT -Nw --- -Ma 0 -Md 2000000 -Ms 8fe6 -Mt 1a3 -Is 21984.-1560450611 -Id 21984.81 -It audio -Il -1597116448 -If 116 -Ii 21984 -Iv 0 
r -t 60.177427739 -Hs 2 -Hd -1558094704 -Ni 2 -Nx 16.13 -Ny 50.04 -Nz 0.00 -Ne 119983.591252 -Nl RTR -Nw --- -Ma 0 -Md 2000000 -Ms 8fe6 -Mt 1a3 -Is 21984.-1560450611 -Id 21984.81 -It audio -Il -1597116448 -If 116 -Ii 21984 -Iv 0 
f -t 60.177427739 -Hs 2 -Hd -1558094704 -Ni 2 -Nx 16.13 -Ny 50.04 -Nz 0.00 -Ne 119983.591252 -Nl RTR -Nw --- -Ma 0 -Md 2000000 -Ms 8fe6 -Mt 1a3 -Is 21984.-1560450611 -Id 21984.81 -It audio -Il -1597116448 -If 116 -Ii 21984 -Iv 0 
r -t 64.115484855 -Hs 3 -Hd -1558094704 -Ni 3 -Nx 47.95 -Ny 64.39 -Nz 0.00 -Ne 997.664346 -Nl MAC -Nw --- -Ma 0 -Md 2000000 -Ms 8 -Mt 1a3 -Is 21984.-1560450611 -Id 21984.81 -It audio -Il -1597116448 -If 116 -Ii 21984 -Iv 0 
s -t 74.145084739 -Hs 2 -Hd -1558094704 -Ni 2 -Nx 16.13 -Ny 50.04 -Nz 0.00 -Ne 119983.364239 -Nl MAC -Nw --- -Ma 0 -Md 2000000 -Ms 8 -Mt 1a3 -Is 21984.-1560450611 -Id 21984.81 -It audio -Il -1597116428 -If 116 -Ii 21984 -Iv 0 
N -t 74.145085 -n 0 -e 46.014510
N -t 74.145085 -n 3 -e 996.205713
N -t 74.145085 -n 4 -e 996.205711
N -t 74.145085 -n 5 -e 996.205711
N -t 74.145085 -n 1 -e 996.205711
s -t 128.130316739 -Hs 2 -Hd -1558094704 -Ni 2 -Nx 16.13 -Ny 50.04 -Nz 0.00 -Ne 238967.054302 -Nl MAC -Nw --- -Ma 0 -Md 2000000 -Ms 8 -Mt 1a3 -Is 21984.-1560450611 -Id 21984.81 -It audio -Il -1597116428 -If 116 -Ii 21984 -Iv 0 
N -t 128.130317 -n 0 -e 19.021894
r -t 128.130316855 -Hs 3 -Hd -1558094704 -Ni 3 -Nx 47.95 -Ny 64.39 -Nz 0.00 -Ne 995.328538 -Nl MAC -Nw --- -Ma 0 -Md 2000000 -Ms 8 -Mt 1a3 -Is 21984.-1560450611 -Id 21984.81 -It audio -Il -1597116448 -If 116 -Ii 21984 -Iv 0 
N -t 128.130317 -n 3 -e 994.032892
N -t 128.130317 -n 4 -e 994.032890
N -t 128.130317 -n 5 -e 994.032891
N -t 128.130317 -n 1 -e 994.032890
s -t 182.115548739 -Hs 2 -Hd -1558094704 -Ni 2 -Nx 16.13 -Ny 50.04 -Nz 0.00 -Ne 357950.744202 -Nl MAC -Nw --- -Ma 0 -Md 2000000 -Ms 8 -Mt 1a3 -Is 21984.-1560450611 -Id 21984.81 -It audio -Il -1597116428 -If 116 -Ii 21984 -Iv 0 
N -t 182.115549 -n 0 -e 0 
r -t 182.115548855 -Hs 3 -Hd -1558094704 -Ni 3 -Nx 47.95 -Ny 64.39 -Nz 0.00 -Ne 993.155555 -Nl MAC -Nw --- -Ma 0 -Md 2000000 -Ms 8 -Mt 1a3 -Is 21984.-1560450611 -Id 21984.81 -It audio -Il -1597116448 -If 116 -Ii 21984 -Iv 0 
N -t 182.115549 -n 3 -e 991.859909
N -t 182.115549 -n 4 -e 991.859907
N -t 182.115549 -n 5 -e 991.859908
N -t 182.115549 -n 1 -e 991.859907
s -t 236.100780739 -Hs 2 -Hd -1558094704 -Ni 2 -Nx 16.13 -Ny 50.04 -Nz 0.00 -Ne 476934.434264 -Nl MAC -Nw --- -Ma 0 -Md 2000000 -Ms 8 -Mt 1a3 -Is 21984.-1560450611 -Id 21984.81 -It audio -Il -1597116428 -If 116 -Ii 21984 -Iv 0 
r -t 236.100780855 -Hs 3 -Hd -1558094704 -Ni 3 -Nx 47.95 -Ny 64.39 -Nz 0.00 -Ne 990.982734 -Nl MAC -Nw --- -Ma 0 -Md 2000000 -Ms 8 -Mt 1a3 -Is 21984.-1560450611 -Id 21984.81 -It audio -Il -1597116448 -If 116 -Ii 21984 -Iv 0 
N -t 236.100781 -n 3 -e 989.687089
N -t 236.100781 -n 4 -e 989.687087
N -t 236.100781 -n 5 -e 989.687087
N -t 236.100781 -n 1 -e 989.687087
s -t 280.892686413 -Hs 5 -Hd -2 -Ni 5 -Nx 79.20 -Ny 11.61 -Nz 0.00 -Ne 988.959087 -Nl AGT -Nw --- -Ma 0 -Md 5000000 -Ms 0 -Mt 0 -Is 5.0 -Id -1.0 -It tcp -Il 0 -If 0 -Ii 12 -Iv 32 -Pn tcp -Ps 0 -Pa 0 -Pf 0 -Po 0 
r -t 280.892686413 -Hs 5 -Hd -2 -Ni 5 -Nx 79.20 -Ny 11.61 -Nz 0.00 -Ne 988.959087 -Nl RTR -Nw --- -Ma 0 -Md 5000000 -Ms 0 -Mt 0 -Is 5.0 -Id -1.0 -It tcp -Il 0 -If 0 -Ii 12 -Iv 32 -Pn tcp -Ps 0 -Pa 0 -Pf 0 -Po 0 
s -t 280.892686413 -Hs 5 -Hd -2 -Ni 5 -Nx 79.20 -Ny 11.61 -Nz 0.00 -Ne 988.959087 -Nl RTR -Nw --- -Ma 0 -Md 5000000 -Ms 0 -Mt 0 -Is 5.0 -Id -1.0 -It tcp -Il 0 -If 0 -Ii 12 -Iv 32 -Pn tcp -Ps 0 -Pa 0 -Pf 0 -Po 0 
s -t 290.086012739 -Hs 2 -Hd -1558094704 -Ni 2 -Nx 16.13 -Ny 50.04 -Nz 0.00 -Ne 595918.124164 -Nl MAC -Nw --- -Ma 0 -Md 2000000 -Ms 8 -Mt 1a3 -Is 21984.-1560450611 -Id 21984.81 -It audio -Il -1597116428 -If 116 -Ii 21984 -Iv 0 
r -t 290.086012855 -Hs 3 -Hd -1558094704 -Ni 3 -Nx 47.95 -Ny 64.39 -Nz 0.00 -Ne 988.809751 -Nl MAC -Nw --- -Ma 0 -Md 2000000 -Ms 8 -Mt 1a3 -Is 21984.-1560450611 -Id 21984.81 -It audio -Il -1597116448 -If 116 -Ii 21984 -Iv 0 
N -t 290.086013 -n 3 -e 987.514106
N -t 290.086013 -n 4 -e 987.514104
N -t 290.086013 -n 5 -e 987.514104
N -t 290.086013 -n 1 -e 987.514104
r -t 344.071244855 -Hs 3 -Hd -1558094704 -Ni 3 -Nx 47.95 -Ny 64.39 -Nz 0.00 -Ne 986.636931 -Nl MAC -Nw --- -Ma 0 -Md 2000000 -Ms 8 -Mt 1a3 -Is 21984.-1560450611 -Id 21984.81 -It audio -Il -1597116448 -If 116 -Ii 21984 -Iv 0 
s -t 344.071271433 -Hs 5 -Hd -2 -Ni 5 -Nx 79.20 -Ny 11.61 -Nz 0.00 -Ne 986.636929 -Nl MAC -Nw --- -Ma 0 -Md 5000000 -Ms ffff0008 -Mt 0 -Is 5.0 -Id -1.0 -It tcp -Il 20 -If 0 -Ii 12 -Iv 32 -Pn tcp -Ps 0 -Pa 0 -Pf 0 -Po 0 
N -t 344.071272 -n 4 -e 986.636927
N -t 344.071272 -n 1 -e 986.636927
N -t 344.071272 -n 3 -e 986.636929
N -t 344.071272 -n 2 -e 714901.814225
r -t 344.071351626 -Hs 4 -Hd -2 -Ni 4 -Nx 67.99 -Ny 68.38 -Nz 0.00 -Ne 986.636927 -Nl MAC -Nw --- -Ma 0 -Md 5000000 -Ms ffff0008 -Mt 0 -Is 5.0 -Id -1.0 -It tcp -Il 0 -If 0 -Ii 12 -Iv 32 -Pn tcp -Ps 0 -Pa 0 -Pf 1 -Po 0 
r -t 344.071351635 -Hs 1 -Hd -2 -Ni 1 -Nx 94.94 -Ny 70.29 -Nz 0.00 -Ne 986.636927 -Nl MAC -Nw --- -Ma 0 -Md 5000000 -Ms ffff0008 -Mt 0 -Is 5.0 -Id -1.0 -It tcp -Il 0 -If 0 -Ii 12 -Iv 32 -Pn tcp -Ps 0 -Pa 0 -Pf 1 -Po 0 
r -t 344.071351637 -Hs 3 -Hd -2 -Ni 3 -Nx 47.95 -Ny 64.39 -Nz 0.00 -Ne 986.636929 -Nl MAC -Nw --- -Ma 0 -Md 5000000 -Ms ffff0008 -Mt 0 -Is 5.0 -Id -1.0 -It tcp -Il 0 -If 0 -Ii 12 -Iv 32 -Pn tcp -Ps 0 -Pa 0 -Pf 1 -Po 0 
r -t 344.071351679 -Hs 2 -Hd -2 -Ni 2 -Nx 16.13 -Ny 50.04 -Nz 0.00 -Ne 714901.814225 -Nl MAC -Nw --- -Ma 0 -Md 5000000 -Ms ffff0008 -Mt 0 -Is 5.0 -Id -1.0 -It tcp -Il 0 -If 0 -Ii 12 -Iv 32 -Pn tcp -Ps 0 -Pa 0 -Pf 1 -Po 0 
r -t 344.071376626 -Hs 4 -Hd -2 -Ni 4 -Nx 67.99 -Ny 68.38 -Nz 0.00 -Ne 986.636927 -Nl RTR -Nw --- -Ma 0 -Md 5000000 -Ms ffff0008 -Mt 0 -Is 5.0 -Id -1.0 -It tcp -Il 0 -If 0 -Ii 12 -Iv 32 -Pn tcp -Ps 0 -Pa 0 -Pf 1 -Po 0 
r -t 344.071376626 -Hs 4 -Hd -2 -Ni 4 -Nx 67.99 -Ny 68.38 -Nz 0.00 -Ne 986.636927 -Nl AGT -Nw --- -Ma 0 -Md 5000000 -Ms ffff0008 -Mt 0 -Is 5.0 -Id -1.0 -It tcp -Il 0 -If 0 -Ii 12 -Iv 32 -Pn tcp -Ps 0 -Pa 0 -Pf 1 -Po 0 