s -t 0.021815065 -Hs 11 -Hd -2 -Ni 11 -Nx 57.26 -Ny 24.65 -Nz 0.00 -Ne 10.000000 -Nl AGT -Nw --- -Ma 0 -Md b000000 -Ms 0 -Mt 0 -Is 11.0 -Id -1.0 -It tcp -Il 0 -If 0 -Ii 0 -Iv 32 -Pn tcp -Ps 0 -Pa 0 -Pf 0 -Po 0 
r -t 0.021815065 -Hs 11 -Hd -2 -Ni 11 -Nx 57.26 -Ny 24.65 -Nz 0.00 -Ne 10.000000 -Nl RTR -Nw --- -Ma 0 -Md b000000 -Ms 0 -Mt 0 -Is 11.0 -Id -1.0 -It tcp -Il 0 -If 0 -Ii 0 -Iv 32 -Pn tcp -Ps 0 -Pa 0 -Pf 0 -Po 0 
s -t 0.021815065 -Hs 11 -Hd -2 -Ni 11 -Nx 57.26 -Ny 24.65 -Nz 0.00 -Ne 10.000000 -Nl RTR -Nw --- -Ma 0 -Md b000000 -Ms 0 -Mt 0 -Is 11.0 -Id -1.0 -It tcp -Il 0 -If 0 -Ii 0 -Iv 32 -Pn tcp -Ps 0 -Pa 0 -Pf 0 -Po 0 
s -t 0.021840065 -Hs 11 -Hd -2 -Ni 11 -Nx 57.26 -Ny 24.65 -Nz 0.00 -Ne 10.000000 -Nl MAC -Nw --- -Ma 0 -Md b000000 -Ms ffff0008 -Mt 0 -Is 11.0 -Id -1.0 -It tcp -Il 20 -If 0 -Ii 0 -Iv 32 -Pn tcp -Ps 0 -Pa 0 -Pf 0 -Po 0 
N -t 0.021840 -n 19 -e 9.999998
N -t 0.021840 -n 20 -e 9.999998
N -t 0.021840 -n 32 -e 9.999998
N -t 0.021840 -n 5 -e 9.999998
N -t 0.021840 -n 29 -e 9.999998
N -t 0.021840 -n 0 -e 99.999960
N -t 0.021840 -n 37 -e 9.999998
N -t 0.021840 -n 33 -e 9.999998
N -t 0.021840 -n 7 -e 9.999998
N -t 0.021840 -n 6 -e 9.999998
N -t 0.021840 -n 13 -e 9.999998
N -t 0.021840 -n 3 -e 9.999998
N -t 0.021840 -n 18 -e 9.999998
N -t 0.021840 -n 24 -e 9.999998
N -t 0.021840 -n 28 -e 9.999998
N -t 0.021840 -n 17 -e 9.999998
N -t 0.021840 -n 31 -e 9.999998
N -t 0.021840 -n 26 -e 9.999998
N -t 0.021840 -n 36 -e 9.999998
N -t 0.021840 -n 16 -e 9.999998
N -t 0.021840 -n 8 -e 9.999998
N -t 0.021840 -n 12 -e 9.999998
N -t 0.021840 -n 22 -e 9.999998
N -t 0.021840 -n 27 -e 9.999998
N -t 0.021840 -n 23 -e 9.999998
N -t 0.021840 -n 40 -e 9.999998
N -t 0.021840 -n 35 -e 9.999998
N -t 0.021840 -n 4 -e 9.999998
N -t 0.021840 -n 38 -e 9.999998
N -t 0.021840 -n 2 -e 9.999998
N -t 0.021840 -n 34 -e 9.999998
N -t 0.021840 -n 21 -e 9.999998
N -t 0.021840 -n 14 -e 9.999998
N -t 0.021840 -n 25 -e 9.999998
N -t 0.021840 -n 10 -e 9.999998
N -t 0.021840 -n 30 -e 9.999998
N -t 0.021840 -n 9 -e 9.999998
N -t 0.021840 -n 39 -e 9.999998
N -t 0.021840 -n 15 -e 9.999998
N -t 0.021840 -n 1 -e 9.999998
r -t 0.021920107 -Hs 19 -Hd -2 -Ni 19 -Nx 69.71 -Ny 22.45 -Nz 0.00 -Ne 9.999998 -Nl MAC -Nw --- -Ma 0 -Md b000000 -Ms ffff0008 -Mt 0 -Is 11.0 -Id -1.0 -It tcp -Il 0 -If 0 -Ii 0 -Iv 32 -Pn tcp -Ps 0 -Pa 0 -Pf 1 -Po 0 
r -t 0.021920110 -Hs 20 -Hd -2 -Ni 20 -Nx 46.58 -Ny 32.54 -Nz 0.00 -Ne 9.999998 -Nl MAC -Nw --- -Ma 0 -Md b000000 -Ms ffff0008 -Mt 0 -Is 11.0 -Id -1.0 -It tcp -Il 0 -If 0 -Ii 0 -Iv 32 -Pn tcp -Ps 0 -Pa 0 -Pf 1 -Po 0 
r -t 0.021920129 -Hs 32 -Hd -2 -Ni 32 -Nx 69.06 -Ny 9.46 -Nz 0.00 -Ne 9.999998 -Nl MAC -Nw --- -Ma 0 -Md b000000 -Ms ffff0008 -Mt 0 -Is 11.0 -Id -1.0 -It tcp -Il 0 -If 0 -Ii 0 -Iv 32 -Pn tcp -Ps 0 -Pa 0 -Pf 1 -Po 0 
r -t 0.021920133 -Hs 5 -Hd -2 -Ni 5 -Nx 70.01 -Ny 40.39 -Nz 0.00 -Ne 9.999998 -Nl MAC -Nw --- -Ma 0 -Md b000000 -Ms ffff0008 -Mt 0 -Is 11.0 -Id -1.0 -It tcp -Il 0 -If 0 -Ii 0 -Iv 32 -Pn tcp -Ps 0 -Pa 0 -Pf 1 -Po 0 
r -t 0.021920136 -Hs 29 -Hd -2 -Ni 29 -Nx 36.56 -Ny 28.80 -Nz 0.00 -Ne 9.999998 -Nl MAC -Nw --- -Ma 0 -Md b000000 -Ms ffff0008 -Mt 0 -Is 11.0 -Id -1.0 -It tcp -Il 0 -If 0 -Ii 0 -Iv 32 -Pn tcp -Ps 0 -Pa 0 -Pf 1 -Po 0 
r -t 0.021920153 -Hs 0 -Hd -2 -Ni 0 -Nx 50.00 -Ny 50.00 -Nz 0.00 -Ne 99.999960 -Nl MAC -Nw --- -Ma 0 -Md b000000 -Ms ffff0008 -Mt 0 -Is 11.0 -Id -1.0 -It tcp -Il 0 -If 0 -Ii 0 -Iv 32 -Pn tcp -Ps 0 -Pa 0 -Pf 1 -Po 0 
r -t 0.021920156 -Hs 37 -Hd -2 -Ni 37 -Nx 50.97 -Ny 51.18 -Nz 0.00 -Ne 9.999998 -Nl MAC -Nw --- -Ma 0 -Md b000000 -Ms ffff0008 -Mt 0 -Is 11.0 -Id -1.0 -It tcp -Il 0 -If 0 -Ii 0 -Iv 32 -Pn tcp -Ps 0 -Pa 0 -Pf 1 -Po 0 
r -t 0.021920158 -Hs 33 -Hd -2 -Ni 33 -Nx 44.03 -Ny 49.26 -Nz 0.00 -Ne 9.999998 -Nl MAC -Nw --- -Ma 0 -Md b000000 -Ms ffff0008 -Mt 0 -Is 11.0 -Id -1.0 -It tcp -Il 0 -If 0 -Ii 0 -Iv 32 -Pn tcp -Ps 0 -Pa 0 -Pf 1 -Po 0 
r -t 0.021920170 -Hs 7 -Hd -2 -Ni 7 -Nx 84.46 -Ny 40.27 -Nz 0.00 -Ne 9.999998 -Nl MAC -Nw --- -Ma 0 -Md b000000 -Ms ffff0008 -Mt 0 -Is 11.0 -Id -1.0 -It tcp -Il 0 -If 0 -Ii 0 -Iv 32 -Pn tcp -Ps 0 -Pa 0 -Pf 1 -Po 0 
r -t 0.021920171 -Hs 6 -Hd -2 -Ni 6 -Nx 72.43 -Ny 52.57 -Nz 0.00 -Ne 9.999998 -Nl MAC -Nw --- -Ma 0 -Md b000000 -Ms ffff0008 -Mt 0 -Is 11.0 -Id -1.0 -It tcp -Il 0 -If 0 -Ii 0 -Iv 32 -Pn tcp -Ps 0 -Pa 0 -Pf 1 -Po 0 
r -t 0.021920174 -Hs 13 -Hd -2 -Ni 13 -Nx 27.43 -Ny 37.63 -Nz 0.00 -Ne 9.999998 -Nl MAC -Nw --- -Ma 0 -Md b000000 -Ms ffff0008 -Mt 0 -Is 11.0 -Id -1.0 -It tcp -Il 0 -If 0 -Ii 0 -Iv 32 -Pn tcp -Ps 0 -Pa 0 -Pf 1 -Po 0 
r -t 0.021920175 -Hs 3 -Hd -2 -Ni 3 -Nx 26.43 -Ny 36.31 -Nz 0.00 -Ne 9.999998 -Nl MAC -Nw --- -Ma 0 -Md b000000 -Ms ffff0008 -Mt 0 -Is 11.0 -Id -1.0 -It tcp -Il 0 -If 0 -Ii 0 -Iv 32 -Pn tcp -Ps 0 -Pa 0 -Pf 1 -Po 0 
r -t 0.021920180 -Hs 18 -Hd -2 -Ni 18 -Nx 91.45 -Ny 20.81 -Nz 0.00 -Ne 9.999998 -Nl MAC -Nw --- -Ma 0 -Md b000000 -Ms ffff0008 -Mt 0 -Is 11.0 -Id -1.0 -It tcp -Il 0 -If 0 -Ii 0 -Iv 32 -Pn tcp -Ps 0 -Pa 0 -Pf 1 -Po 0 
r -t 0.021920182 -Hs 24 -Hd -2 -Ni 24 -Nx 91.87 -Ny 30.07 -Nz 0.00 -Ne 9.999998 -Nl MAC -Nw --- -Ma 0 -Md b000000 -Ms ffff0008 -Mt 0 -Is 11.0 -Id -1.0 -It tcp -Il 0 -If 0 -Ii 0 -Iv 32 -Pn tcp -Ps 0 -Pa 0 -Pf 1 -Po 0 
r -t 0.021920183 -Hs 28 -Hd -2 -Ni 28 -Nx 32.93 -Ny 50.35 -Nz 0.00 -Ne 9.999998 -Nl MAC -Nw --- -Ma 0 -Md b000000 -Ms ffff0008 -Mt 0 -Is 11.0 -Id -1.0 -It tcp -Il 0 -If 0 -Ii 0 -Iv 32 -Pn tcp -Ps 0 -Pa 0 -Pf 1 -Po 0 
r -t 0.021920189 -Hs 17 -Hd -2 -Ni 17 -Nx 26.75 -Ny 45.62 -Nz 0.00 -Ne 9.999998 -Nl MAC -Nw --- -Ma 0 -Md b000000 -Ms ffff0008 -Mt 0 -Is 11.0 -Id -1.0 -It tcp -Il 0 -If 0 -Ii 0 -Iv 32 -Pn tcp -Ps 0 -Pa 0 -Pf 1 -Po 0 
r -t 0.021920197 -Hs 31 -Hd -2 -Ni 31 -Nx 70.89 -Ny 61.88 -Nz 0.00 -Ne 9.999998 -Nl MAC -Nw --- -Ma 0 -Md b000000 -Ms ffff0008 -Mt 0 -Is 11.0 -Id -1.0 -It tcp -Il 0 -If 0 -Ii 0 -Iv 32 -Pn tcp -Ps 0 -Pa 0 -Pf 1 -Po 0 
r -t 0.021920199 -Hs 26 -Hd -2 -Ni 26 -Nx 17.88 -Ny 16.64 -Nz 0.00 -Ne 9.999998 -Nl MAC -Nw --- -Ma 0 -Md b000000 -Ms ffff0008 -Mt 0 -Is 11.0 -Id -1.0 -It tcp -Il 0 -If 0 -Ii 0 -Iv 32 -Pn tcp -Ps 0 -Pa 0 -Pf 1 -Po 0 
r -t 0.021920205 -Hs 36 -Hd -2 -Ni 36 -Nx 83.82 -Ny 57.11 -Nz 0.00 -Ne 9.999998 -Nl MAC -Nw --- -Ma 0 -Md b000000 -Ms ffff0008 -Mt 0 -Is 11.0 -Id -1.0 -It tcp -Il 0 -If 0 -Ii 0 -Iv 32 -Pn tcp -Ps 0 -Pa 0 -Pf 1 -Po 0 
r -t 0.021920205 -Hs 16 -Hd -2 -Ni 16 -Nx 23.81 -Ny 50.10 -Nz 0.00 -Ne 9.999998 -Nl MAC -Nw --- -Ma 0 -Md b000000 -Ms ffff0008 -Mt 0 -Is 11.0 -Id -1.0 -It tcp -Il 0 -If 0 -Ii 0 -Iv 32 -Pn tcp -Ps 0 -Pa 0 -Pf 1 -Po 0 
r -t 0.021920213 -Hs 8 -Hd -2 -Ni 8 -Nx 76.85 -Ny 64.48 -Nz 0.00 -Ne 9.999998 -Nl MAC -Nw --- -Ma 0 -Md b000000 -Ms ffff0008 -Mt 0 -Is 11.0 -Id -1.0 -It tcp -Il 0 -If 0 -Ii 0 -Iv 32 -Pn tcp -Ps 0 -Pa 0 -Pf 1 -Po 0 
r -t 0.021920215 -Hs 12 -Hd -2 -Ni 12 -Nx 97.21 -Ny 45.23 -Nz 0.00 -Ne 9.999998 -Nl MAC -Nw --- -Ma 0 -Md b000000 -Ms ffff0008 -Mt 0 -Is 11.0 -Id -1.0 -It tcp -Il 0 -If 0 -Ii 0 -Iv 32 -Pn tcp -Ps 0 -Pa 0 -Pf 1 -Po 0 
r -t 0.021920215 -Hs 22 -Hd -2 -Ni 22 -Nx 12.24 -Ny 26.37 -Nz 0.00 -Ne 9.999998 -Nl MAC -Nw --- -Ma 0 -Md b000000 -Ms ffff0008 -Mt 0 -Is 11.0 -Id -1.0 -It tcp -Il 0 -If 0 -Ii 0 -Iv 32 -Pn tcp -Ps 0 -Pa 0 -Pf 1 -Po 0 
r -t 0.021920223 -Hs 27 -Hd -2 -Ni 27 -Nx 89.43 -Ny 59.14 -Nz 0.00 -Ne 9.999998 -Nl MAC -Nw --- -Ma 0 -Md b000000 -Ms ffff0008 -Mt 0 -Is 11.0 -Id -1.0 -It tcp -Il 0 -If 0 -Ii 0 -Iv 32 -Pn tcp -Ps 0 -Pa 0 -Pf 1 -Po 0 
r -t 0.021920223 -Hs 23 -Hd -2 -Ni 23 -Nx 63.34 -Ny 71.47 -Nz 0.00 -Ne 9.999998 -Nl MAC -Nw --- -Ma 0 -Md b000000 -Ms ffff0008 -Mt 0 -Is 11.0 -Id -1.0 -It tcp -Il 0 -If 0 -Ii 0 -Iv 32 -Pn tcp -Ps 0 -Pa 0 -Pf 1 -Po 0 
r -t 0.021920225 -Hs 40 -Hd -2 -Ni 40 -Nx 82.26 -Ny 65.65 -Nz 0.00 -Ne 9.999998 -Nl MAC -Nw --- -Ma 0 -Md b000000 -Ms ffff0008 -Mt 0 -Is 11.0 -Id -1.0 -It tcp -Il 0 -If 0 -Ii 0 -Iv 32 -Pn tcp -Ps 0 -Pa 0 -Pf 1 -Po 0 
r -t 0.021920228 -Hs 35 -Hd -2 -Ni 35 -Nx 27.16 -Ny 62.95 -Nz 0.00 -Ne 9.999998 -Nl MAC -Nw --- -Ma 0 -Md b000000 -Ms ffff0008 -Mt 0 -Is 11.0 -Id -1.0 -It tcp -Il 0 -If 0 -Ii 0 -Iv 32 -Pn tcp -Ps 0 -Pa 0 -Pf 1 -Po 0 
r -t 0.021920231 -Hs 4 -Hd -2 -Ni 4 -Nx 11.70 -Ny 4.99 -Nz 0.00 -Ne 9.999998 -Nl MAC -Nw --- -Ma 0 -Md b000000 -Ms ffff0008 -Mt 0 -Is 11.0 -Id -1.0 -It tcp -Il 0 -If 0 -Ii 0 -Iv 32 -Pn tcp -Ps 0 -Pa 0 -Pf 1 -Po 0 
r -t 0.021920239 -Hs 38 -Hd -2 -Ni 38 -Nx 5.59 -Ny 30.32 -Nz 0.00 -Ne 9.999998 -Nl MAC -Nw --- -Ma 0 -Md b000000 -Ms ffff0008 -Mt 0 -Is 11.0 -Id -1.0 -It tcp -Il 0 -If 0 -Ii 0 -Iv 32 -Pn tcp -Ps 0 -Pa 0 -Pf 1 -Po 0 
r -t 0.021920242 -Hs 2 -Hd -2 -Ni 2 -Nx 41.92 -Ny 75.24 -Nz 0.00 -Ne 9.999998 -Nl MAC -Nw --- -Ma 0 -Md b000000 -Ms ffff0008 -Mt 0 -Is 11.0 -Id -1.0 -It tcp -Il 0 -If 0 -Ii 0 -Iv 32 -Pn tcp -Ps 0 -Pa 0 -Pf 1 -Po 0 
r -t 0.021920244 -Hs 34 -Hd -2 -Ni 34 -Nx 10.68 -Ny 51.28 -Nz 0.00 -Ne 9.999998 -Nl MAC -Nw --- -Ma 0 -Md b000000 -Ms ffff0008 -Mt 0 -Is 11.0 -Id -1.0 -It tcp -Il 0 -If 0 -Ii 0 -Iv 32 -Pn tcp -Ps 0 -Pa 0 -Pf 1 -Po 0 
r -t 0.021920271 -Hs 21 -Hd -2 -Ni 21 -Nx 53.90 -Ny 86.32 -Nz 0.00 -Ne 9.999998 -Nl MAC -Nw --- -Ma 0 -Md b000000 -Ms ffff0008 -Mt 0 -Is 11.0 -Id -1.0 -It tcp -Il 0 -If 0 -Ii 0 -Iv 32 -Pn tcp -Ps 0 -Pa 0 -Pf 1 -Po 0 
r -t 0.021920283 -Hs 14 -Hd -2 -Ni 14 -Nx 94.55 -Ny 78.14 -Nz 0.00 -Ne 9.999998 -Nl MAC -Nw --- -Ma 0 -Md b000000 -Ms ffff0008 -Mt 0 -Is 11.0 -Id -1.0 -It tcp -Il 0 -If 0 -Ii 0 -Iv 32 -Pn tcp -Ps 0 -Pa 0 -Pf 1 -Po 0 
r -t 0.021920291 -Hs 25 -Hd -2 -Ni 25 -Nx 45.56 -Ny 91.37 -Nz 0.00 -Ne 9.999998 -Nl MAC -Nw --- -Ma 0 -Md b000000 -Ms ffff0008 -Mt 0 -Is 11.0 -Id -1.0 -It tcp -Il 0 -If 0 -Ii 0 -Iv 32 -Pn tcp -Ps 0 -Pa 0 -Pf 1 -Po 0 
r -t 0.021920304 -Hs 10 -Hd -2 -Ni 10 -Nx 10.59 -Ny 78.90 -Nz 0.00 -Ne 9.999998 -Nl MAC -Nw --- -Ma 0 -Md b000000 -Ms ffff0008 -Mt 0 -Is 11.0 -Id -1.0 -It tcp -Il 0 -If 0 -Ii 0 -Iv 32 -Pn tcp -Ps 0 -Pa 0 -Pf 1 -Po 0 
r -t 0.021920323 -Hs 30 -Hd -2 -Ni 30 -Nx 84.29 -Ny 97.23 -Nz 0.00 -Ne 9.999998 -Nl MAC -Nw --- -Ma 0 -Md b000000 -Ms ffff0008 -Mt 0 -Is 11.0 -Id -1.0 -It tcp -Il 0 -If 0 -Ii 0 -Iv 32 -Pn tcp -Ps 0 -Pa 0 -Pf 1 -Po 0 
r -t 0.021920324 -Hs 9 -Hd -2 -Ni 9 -Nx 4.08 -Ny 81.02 -Nz 0.00 -Ne 9.999998 -Nl MAC -Nw --- -Ma 0 -Md b000000 -Ms ffff0008 -Mt 0 -Is 11.0 -Id -1.0 -It tcp -Il 0 -If 0 -Ii 0 -Iv 32 -Pn tcp -Ps 0 -Pa 0 -Pf 1 -Po 0 
r -t 0.021920332 -Hs 39 -Hd -2 -Ni 39 -Nx 12.46 -Ny 90.87 -Nz 0.00 -Ne 9.999998 -Nl MAC -Nw --- -Ma 0 -Md b000000 -Ms ffff0008 -Mt 0 -Is 11.0 -Id -1.0 -It tcp -Il 0 -If 0 -Ii 0 -Iv 32 -Pn tcp -Ps 0 -Pa 0 -Pf 1 -Po 0 
r -t 0.021920338 -Hs 15 -Hd -2 -Ni 15 -Nx 99.88 -Ny 94.48 -Nz 0.00 -Ne 9.999998 -Nl MAC -Nw --- -Ma 0 -Md b000000 -Ms ffff0008 -Mt 0 -Is 11.0 -Id -1.0 -It tcp -Il 0 -If 0 -Ii 0 -Iv 32 -Pn tcp -Ps 0 -Pa 0 -Pf 1 -Po 0 
r -t 0.021920373 -Hs 1 -Hd -2 -Ni 1 -Nx 3.34 -Ny 99.51 -Nz 0.00 -Ne 9.999998 -Nl MAC -Nw --- -Ma 0 -Md b000000 -Ms ffff0008 -Mt 0 -Is 11.0 -Id -1.0 -It tcp -Il 0 -If 0 -Ii 0 -Iv 32 -Pn tcp -Ps 0 -Pa 0 -Pf 1 -Po 0 
r -t 0.021945107 -Hs 19 -Hd -2 -Ni 19 -Nx 69.71 -Ny 22.45 -Nz 0.00 -Ne 9.999998 -Nl RTR -Nw --- -Ma 0 -Md b000000 -Ms ffff0008 -Mt 0 -Is 11.0 -Id -1.0 -It tcp -Il 0 -If 0 -Ii 0 -Iv 32 -Pn tcp -Ps 0 -Pa 0 -Pf 1 -Po 0 
r -t 0.021945107 -Hs 19 -Hd -2 -Ni 19 -Nx 69.71 -Ny 22.45 -Nz 0.00 -Ne 9.999998 -Nl AGT -Nw --- -Ma 0 -Md b000000 -Ms ffff0008 -Mt 0 -Is 11.0 -Id -1.0 -It tcp -Il 0 -If 0 -Ii 0 -Iv 32 -Pn tcp -Ps 0 -Pa 0 -Pf 1 -Po 0 
r -t 0.021945110 -Hs 20 -Hd -2 -Ni 20 -Nx 46.58 -Ny 32.54 -Nz 0.00 -Ne 9.999998 -Nl RTR -Nw --- -Ma 0 -Md b000000 -Ms ffff0008 -Mt 0 -Is 11.0 -Id -1.0 -It tcp -Il 0 -If 0 -Ii 0 -Iv 32 -Pn tcp -Ps 0 -Pa 0 -Pf 1 -Po 0 
r -t 0.021945110 -Hs 20 -Hd -2 -Ni 20 -Nx 46.58 -Ny 32.54 -Nz 0.00 -Ne 9.999998 -Nl AGT -Nw --- -Ma 0 -Md b000000 -Ms ffff0008 -Mt 0 -Is 11.0 -Id -1.0 -It tcp -Il 0 -If 0 -Ii 0 -Iv 32 -Pn tcp -Ps 0 -Pa 0 -Pf 1 -Po 0 
r -t 0.021945129 -Hs 32 -Hd -2 -Ni 32 -Nx 69.06 -Ny 9.46 -Nz 0.00 -Ne 9.999998 -Nl RTR -Nw --- -Ma 0 -Md b000000 -Ms ffff0008 -Mt 0 -Is 11.0 -Id -1.0 -It tcp -Il 0 -If 0 -Ii 0 -Iv 32 -Pn tcp -Ps 0 -Pa 0 -Pf 1 -Po 0 
r -t 0.021945129 -Hs 32 -Hd -2 -Ni 32 -Nx 69.06 -Ny 9.46 -Nz 0.00 -Ne 9.999998 -Nl AGT -Nw --- -Ma 0 -Md b000000 -Ms ffff0008 -Mt 0 -Is 11.0 -Id -1.0 -It tcp -Il 0 -If 0 -Ii 0 -Iv 32 -Pn tcp -Ps 0 -Pa 0 -Pf 1 -Po 0 
r -t 0.021945133 -Hs 5 -Hd -2 -Ni 5 -Nx 70.01 -Ny 40.39 -Nz 0.00 -Ne 9.999998 -Nl RTR -Nw --- -Ma 0 -Md b000000 -Ms ffff0008 -Mt 0 -Is 11.0 -Id -1.0 -It tcp -Il 0 -If 0 -Ii 0 -Iv 32 -Pn tcp -Ps 0 -Pa 0 -Pf 1 -Po 0 
r -t 0.021945133 -Hs 5 -Hd -2 -Ni 5 -Nx 70.01 -Ny 40.39 -Nz 0.00 -Ne 9.999998 -Nl AGT -Nw --- -Ma 0 -Md b000000 -Ms ffff0008 -Mt 0 -Is 11.0 -Id -1.0 -It tcp -Il 0 -If 0 -Ii 0 -Iv 32 -Pn tcp -Ps 0 -Pa 0 -Pf 1 -Po 0 
r -t 0.021945136 -Hs 29 -Hd -2 -Ni 29 -Nx 36.56 -Ny 28.80 -Nz 0.00 -Ne 9.999998 -Nl RTR -Nw --- -Ma 0 -Md b000000 -Ms ffff0008 -Mt 0 -Is 11.0 -Id -1.0 -It tcp -Il 0 -If 0 -Ii 0 -Iv 32 -Pn tcp -Ps 0 -Pa 0 -Pf 1 -Po 0 
r -t 0.021945136 -Hs 29 -Hd -2 -Ni 29 -Nx 36.56 -Ny 28.80 -Nz 0.00 -Ne 9.999998 -Nl AGT -Nw --- -Ma 0 -Md b000000 -Ms ffff0008 -Mt 0 -Is 11.0 -Id -1.0 -It tcp -Il 0 -If 0 -Ii 0 -Iv 32 -Pn tcp -Ps 0 -Pa 0 -Pf 1 -Po 0 
r -t 0.021945153 -Hs 0 -Hd -2 -Ni 0 -Nx 50.00 -Ny 50.00 -Nz 0.00 -Ne 99.999960 -Nl RTR -Nw --- -Ma 0 -Md b000000 -Ms ffff0008 -Mt 0 -Is 11.0 -Id -1.0 -It tcp -Il 0 -If 0 -Ii 0 -Iv 32 -Pn tcp -Ps 0 -Pa 0 -Pf 1 -Po 0 
r -t 0.021945153 -Hs 0 -Hd -2 -Ni 0 -Nx 50.00 -Ny 50.00 -Nz 0.00 -Ne 99.999960 -Nl AGT -Nw --- -Ma 0 -Md b000000 -Ms ffff0008 -Mt 0 -Is 11.0 -Id -1.0 -It tcp -Il 0 -If 0 -Ii 0 -Iv 32 -Pn tcp -Ps 0 -Pa 0 -Pf 1 -Po 0 
r -t 0.021945156 -Hs 37 -Hd -2 -Ni 37 -Nx 50.97 -Ny 51.18 -Nz 0.00 -Ne 9.999998 -Nl RTR -Nw --- -Ma 0 -Md b000000 -Ms ffff0008 -Mt 0 -Is 11.0 -Id -1.0 -It tcp -Il 0 -If 0 -Ii 0 -Iv 32 -Pn tcp -Ps 0 -Pa 0 -Pf 1 -Po 0 
r -t 0.021945156 -Hs 37 -Hd -2 -Ni 37 -Nx 50.97 -Ny 51.18 -Nz 0.00 -Ne 9.999998 -Nl AGT -Nw --- -Ma 0 -Md b000000 -Ms ffff0008 -Mt 0 -Is 11.0 -Id -1.0 -It tcp -Il 0 -If 0 -Ii 0 -Iv 32 -Pn tcp -Ps 0 -Pa 0 -Pf 1 -Po 0 
r -t 0.021945158 -Hs 33 -Hd -2 -Ni 33 -Nx 44.03 -Ny 49.26 -Nz 0.00 -Ne 9.999998 -Nl RTR -Nw --- -Ma 0 -Md b000000 -Ms ffff0008 -Mt 0 -Is 11.0 -Id -1.0 -It tcp -Il 0 -If 0 -Ii 0 -Iv 32 -Pn tcp -Ps 0 -Pa 0 -Pf 1 -Po 0 
r -t 0.021945158 -Hs 33 -Hd -2 -Ni 33 -Nx 44.03 -Ny 49.26 -Nz 0.00 -Ne 9.999998 -Nl AGT -Nw --- -Ma 0 -Md b000000 -Ms ffff0008 -Mt 0 -Is 11.0 -Id -1.0 -It tcp -Il 0 -If 0 -Ii 0 -Iv 32 -Pn tcp -Ps 0 -Pa 0 -Pf 1 -Po 0 
r -t 0.021945170 -Hs 7 -Hd -2 -Ni 7 -Nx 84.46 -Ny 40.27 -Nz 0.00 -Ne 9.999998 -Nl RTR -Nw --- -Ma 0 -Md b000000 -Ms ffff0008 -Mt 0 -Is 11.0 -Id -1.0 -It tcp -Il 0 -If 0 -Ii 0 -Iv 32 -Pn tcp -Ps 0 -Pa 0 -Pf 1 -Po 0 
r -t 0.021945170 -Hs 7 -Hd -2 -Ni 7 -Nx 84.46 -Ny 40.27 -Nz 0.00 -Ne 9.999998 -Nl AGT -Nw --- -Ma 0 -Md b000000 -Ms ffff0008 -Mt 0 -Is 11.0 -Id -1.0 -It tcp -Il 0 -If 0 -Ii 0 -Iv 32 -Pn tcp -Ps 0 -Pa 0 -Pf 1 -Po 0 
r -t 0.021945171 -Hs 6 -Hd -2 -Ni 6 -Nx 72.43 -Ny 52.57 -Nz 0.00 -Ne 9.999998 -Nl RTR -Nw --- -Ma 0 -Md b000000 -Ms ffff0008 -Mt 0 -Is 11.0 -Id -1.0 -It tcp -Il 0 -If 0 -Ii 0 -Iv 32 -Pn tcp -Ps 0 -Pa 0 -Pf 1 -Po 0 
r -t 0.021945171 -Hs 6 -Hd -2 -Ni 6 -Nx 72.43 -Ny 52.57 -Nz 0.00 -Ne 9.999998 -Nl AGT -Nw --- -Ma 0 -Md b000000 -Ms ffff0008 -Mt 0 -Is 11.0 -Id -1.0 -It tcp -Il 0 -If 0 -Ii 0 -Iv 32 -Pn tcp -Ps 0 -Pa 0 -Pf 1 -Po 0 
r -t 0.021945174 -Hs 13 -Hd -2 -Ni 13 -Nx 27.43 -Ny 37.63 -Nz 0.00 -Ne 9.999998 -Nl RTR -Nw --- -Ma 0 -Md b000000 -Ms ffff0008 -Mt 0 -Is 11.0 -Id -1.0 -It tcp -Il 0 -If 0 -Ii 0 -Iv 32 -Pn tcp -Ps 0 -Pa 0 -Pf 1 -Po 0 
r -t 0.021945174 -Hs 13 -Hd -2 -Ni 13 -Nx 27.43 -Ny 37.63 -Nz 0.00 -Ne 9.999998 -Nl AGT -Nw --- -Ma 0 -Md b000000 -Ms ffff0008 -Mt 0 -Is 11.0 -Id -1.0 -It tcp -Il 0 -If 0 -Ii 0 -Iv 32 -Pn tcp -Ps 0 -Pa 0 -Pf 1 -Po 0 
r -t 0.021945175 -Hs 3 -Hd -2 -Ni 3 -Nx 26.43 -Ny 36.31 -Nz 0.00 -Ne 9.999998 -Nl RTR -Nw --- -Ma 0 -Md b000000 -Ms ffff0008 -Mt 0 -Is 11.0 -Id -1.0 -It tcp -Il 0 -If 0 -Ii 0 -Iv 32 -Pn tcp -Ps 0 -Pa 0 -Pf 1 -Po 0 
r -t 0.021945175 -Hs 3 -Hd -2 -Ni 3 -Nx 26.43 -Ny 36.31 -Nz 0.00 -Ne 9.999998 -Nl AGT -Nw --- -Ma 0 -Md b000000 -Ms ffff0008 -Mt 0 -Is 11.0 -Id -1.0 -It tcp -Il 0 -If 0 -Ii 0 -Iv 32 -Pn tcp -Ps 0 -Pa 0 -Pf 1 -Po 0 
r -t 0.021945180 -Hs 18 -Hd -2 -Ni 18 -Nx 91.45 -Ny 20.81 -Nz 0.00 -Ne 9.999998 -Nl RTR -Nw --- -Ma 0 -Md b000000 -Ms ffff0008 -Mt 0 -Is 11.0 -Id -1.0 -It tcp -Il 0 -If 0 -Ii 0 -Iv 32 -Pn tcp -Ps 0 -Pa 0 -Pf 1 -Po 0 
r -t 0.021945180 -Hs 18 -Hd -2 -Ni 18 -Nx 91.45 -Ny 20.81 -Nz 0.00 -Ne 9.999998 -Nl AGT -Nw --- -Ma 0 -Md b000000 -Ms ffff0008 -Mt 0 -Is 11.0 -Id -1.0 -It tcp -Il 0 -If 0 -Ii 0 -Iv 32 -Pn tcp -Ps 0 -Pa 0 -Pf 1 -Po 0 
r -t 0.021945182 -Hs 24 -Hd -2 -Ni 24 -Nx 91.87 -Ny 30.07 -Nz 0.00 -Ne 9.999998 -Nl RTR -Nw --- -Ma 0 -Md b000000 -Ms ffff0008 -Mt 0 -Is 11.0 -Id -1.0 -It tcp -Il 0 -If 0 -Ii 0 -Iv 32 -Pn tcp -Ps 0 -Pa 0 -Pf 1 -Po 0 
r -t 0.021945182 -Hs 24 -Hd -2 -Ni 24 -Nx 91.87 -Ny 30.07 -Nz 0.00 -Ne 9.999998 -Nl AGT -Nw --- -Ma 0 -Md b000000 -Ms ffff0008 -Mt 0 -Is 11.0 -Id -1.0 -It tcp -Il 0 -If 0 -Ii 0 -Iv 32 -Pn tcp -Ps 0 -Pa 0 -Pf 1 -Po 0 
r -t 0.021945183 -Hs 28 -Hd -2 -Ni 28 -Nx 32.93 -Ny 50.35 -Nz 0.00 -Ne 9.999998 -Nl RTR -Nw --- -Ma 0 -Md b000000 -Ms ffff0008 -Mt 0 -Is 11.0 -Id -1.0 -It tcp -Il 0 -If 0 -Ii 0 -Iv 32 -Pn tcp -Ps 0 -Pa 0 -Pf 1 -Po 0 
r -t 0.021945183 -Hs 28 -Hd -2 -Ni 28 -Nx 32.93 -Ny 50.35 -Nz 0.00 -Ne 9.999998 -Nl AGT -Nw --- -Ma 0 -Md b000000 -Ms ffff0008 -Mt 0 -Is 11.0 -Id -1.0 -It tcp -Il 0 -If 0 -Ii 0 -Iv 32 -Pn tcp -Ps 0 -Pa 0 -Pf 1 -Po 0 
r -t 0.021945189 -Hs 17 -Hd -2 -Ni 17 -Nx 26.75 -Ny 45.62 -Nz 0.00 -Ne 9.999998 -Nl RTR -Nw --- -Ma 0 -Md b000000 -Ms ffff0008 -Mt 0 -Is 11.0 -Id -1.0 -It tcp -Il 0 -If 0 -Ii 0 -Iv 32 -Pn tcp -Ps 0 -Pa 0 -Pf 1 -Po 0 
r -t 0.021945189 -Hs 17 -Hd -2 -Ni 17 -Nx 26.75 -Ny 45.62 -Nz 0.00 -Ne 9.999998 -Nl AGT -Nw --- -Ma 0 -Md b000000 -Ms ffff0008 -Mt 0 -Is 11.0 -Id -1.0 -It tcp -Il 0 -If 0 -Ii 0 -Iv 32 -Pn tcp -Ps 0 -Pa 0 -Pf 1 -Po 0 
r -t 0.021945197 -Hs 31 -Hd -2 -Ni 31 -Nx 70.89 -Ny 61.88 -Nz 0.00 -Ne 9.999998 -Nl RTR -Nw --- -Ma 0 -Md b000000 -Ms ffff0008 -Mt 0 -Is 11.0 -Id -1.0 -It tcp -Il 0 -If 0 -Ii 0 -Iv 32 -Pn tcp -Ps 0 -Pa 0 -Pf 1 -Po 0 
r -t 0.021945197 -Hs 31 -Hd -2 -Ni 31 -Nx 70.89 -Ny 61.88 -Nz 0.00 -Ne 9.999998 -Nl AGT -Nw --- -Ma 0 -Md b000000 -Ms ffff0008 -Mt 0 -Is 11.0 -Id -1.0 -It tcp -Il 0 -If 0 -Ii 0 -Iv 32 -Pn tcp -Ps 0 -Pa 0 -Pf 1 -Po 0 
r -t 0.021945199 -Hs 26 -Hd -2 -Ni 26 -Nx 17.88 -Ny 16.64 -Nz 0.00 -Ne 9.999998 -Nl RTR -Nw --- -Ma 0 -Md b000000 -Ms ffff0008 -Mt 0 -Is 11.0 -Id -1.0 -It tcp -Il 0 -If 0 -Ii 0 -Iv 32 -Pn tcp -Ps 0 -Pa 0 -Pf 1 -Po 0 
r -t 0.021945199 -Hs 26 -Hd -2 -Ni 26 -Nx 17.88 -Ny 16.64 -Nz 0.00 -Ne 9.999998 -Nl AGT -Nw --- -Ma 0 -Md b000000 -Ms ffff0008 -Mt 0 -Is 11.0 -Id -1.0 -It tcp -Il 0 -If 0 -Ii 0 -Iv 32 -Pn tcp -Ps 0 -Pa 0 -Pf 1 -Po 0 
r -t 0.021945205 -Hs 36 -Hd -2 -Ni 36 -Nx 83.82 -Ny 57.11 -Nz 0.00 -Ne 9.999998 -Nl RTR -Nw --- -Ma 0 -Md b000000 -Ms ffff0008 -Mt 0 -Is 11.0 -Id -1.0 -It tcp -Il 0 -If 0 -Ii 0 -Iv 32 -Pn tcp -Ps 0 -Pa 0 -Pf 1 -Po 0 
r -t 0.021945205 -Hs 36 -Hd -2 -Ni 36 -Nx 83.82 -Ny 57.11 -Nz 0.00 -Ne 9.999998 -Nl AGT -Nw --- -Ma 0 -Md b000000 -Ms ffff0008 -Mt 0 -Is 11.0 -Id -1.0 -It tcp -Il 0 -If 0 -Ii 0 -Iv 32 -Pn tcp -Ps 0 -Pa 0 -Pf 1 -Po 0 
r -t 0.021945205 -Hs 16 -Hd -2 -Ni 16 -Nx 23.81 -Ny 50.10 -Nz 0.00 -Ne 9.999998 -Nl RTR -Nw --- -Ma 0 -Md b000000 -Ms ffff0008 -Mt 0 -Is 11.0 -Id -1.0 -It tcp -Il 0 -If 0 -Ii 0 -Iv 32 -Pn tcp -Ps 0 -Pa 0 -Pf 1 -Po 0 
r -t 0.021945205 -Hs 16 -Hd -2 -Ni 16 -Nx 23.81 -Ny 50.10 -Nz 0.00 -Ne 9.999998 -Nl AGT -Nw --- -Ma 0 -Md b000000 -Ms ffff0008 -Mt 0 -Is 11.0 -Id -1.0 -It tcp -Il 0 -If 0 -Ii 0 -Iv 32 -Pn tcp -Ps 0 -Pa 0 -Pf 1 -Po 0 
r -t 0.021945213 -Hs 8 -Hd -2 -Ni 8 -Nx 76.85 -Ny 64.48 -Nz 0.00 -Ne 9.999998 -Nl RTR -Nw --- -Ma 0 -Md b000000 -Ms ffff0008 -Mt 0 -Is 11.0 -Id -1.0 -It tcp -Il 0 -If 0 -Ii 0 -Iv 32 -Pn tcp -Ps 0 -Pa 0 -Pf 1 -Po 0 
r -t 0.021945213 -Hs 8 -Hd -2 -Ni 8 -Nx 76.85 -Ny 64.48 -Nz 0.00 -Ne 9.999998 -Nl AGT -Nw --- -Ma 0 -Md b000000 -Ms ffff0008 -Mt 0 -Is 11.0 -Id -1.0 -It tcp -Il 0 -If 0 -Ii 0 -Iv 32 -Pn tcp -Ps 0 -Pa 0 -Pf 1 -Po 0 
r -t 0.021945215 -Hs 12 -Hd -2 -Ni 12 -Nx 97.21 -Ny 45.23 -Nz 0.00 -Ne 9.999998 -Nl RTR -Nw --- -Ma 0 -Md b000000 -Ms ffff0008 -Mt 0 -Is 11.0 -Id -1.0 -It tcp -Il 0 -If 0 -Ii 0 -Iv 32 -Pn tcp -Ps 0 -Pa 0 -Pf 1 -Po 0 
r -t 0.021945215 -Hs 12 -Hd -2 -Ni 12 -Nx 97.21 -Ny 45.23 -Nz 0.00 -Ne 9.999998 -Nl AGT -Nw --- -Ma 0 -Md b000000 -Ms ffff0008 -Mt 0 -Is 11.0 -Id -1.0 -It tcp -Il 0 -If 0 -Ii 0 -Iv 32 -Pn tcp -Ps 0 -Pa 0 -Pf 1 -Po 0 
r -t 0.021945215 -Hs 22 -Hd -2 -Ni 22 -Nx 12.24 -Ny 26.37 -Nz 0.00 -Ne 9.999998 -Nl RTR -Nw --- -Ma 0 -Md b000000 -Ms ffff0008 -Mt 0 -Is 11.0 -Id -1.0 -It tcp -Il 0 -If 0 -Ii 0 -Iv 32 -Pn tcp -Ps 0 -Pa 0 -Pf 1 -Po 0 
r -t 0.021945215 -Hs 22 -Hd -2 -Ni 22 -Nx 12.24 -Ny 26.37 -Nz 0.00 -Ne 9.999998 -Nl AGT -Nw --- -Ma 0 -Md b000000 -Ms ffff0008 -Mt 0 -Is 11.0 -Id -1.0 -It tcp -Il 0 -If 0 -Ii 0 -Iv 32 -Pn tcp -Ps 0 -Pa 0 -Pf 1 -Po 0 
r -t 0.021945223 -Hs 27 -Hd -2 -Ni 27 -Nx 89.43 -Ny 59.14 -Nz 0.00 -Ne 9.999998 -Nl RTR -Nw --- -Ma 0 -Md b000000 -Ms ffff0008 -Mt 0 -Is 11.0 -Id -1.0 -It tcp -Il 0 -If 0 -Ii 0 -Iv 32 -Pn tcp -Ps 0 -Pa 0 -Pf 1 -Po 0 
r -t 0.021945223 -Hs 27 -Hd -2 -Ni 27 -Nx 89.43 -Ny 59.14 -Nz 0.00 -Ne 9.999998 -Nl AGT -Nw --- -Ma 0 -Md b000000 -Ms ffff0008 -Mt 0 -Is 11.0 -Id -1.0 -It tcp -Il 0 -If 0 -Ii 0 -Iv 32 -Pn tcp -Ps 0 -Pa 0 -Pf 1 -Po 0 
r -t 0.021945223 -Hs 23 -Hd -2 -Ni 23 -Nx 63.34 -Ny 71.47 -Nz 0.00 -Ne 9.999998 -Nl RTR -Nw --- -Ma 0 -Md b000000 -Ms ffff0008 -Mt 0 -Is 11.0 -Id -1.0 -It tcp -Il 0 -If 0 -Ii 0 -Iv 32 -Pn tcp -Ps 0 -Pa 0 -Pf 1 -Po 0 
r -t 0.021945223 -Hs 23 -Hd -2 -Ni 23 -Nx 63.34 -Ny 71.47 -Nz 0.00 -Ne 9.999998 -Nl AGT -Nw --- -Ma 0 -Md b000000 -Ms ffff0008 -Mt 0 -Is 11.0 -Id -1.0 -It tcp -Il 0 -If 0 -Ii 0 -Iv 32 -Pn tcp -Ps 0 -Pa 0 -Pf 1 -Po 0 
r -t 0.021945225 -Hs 40 -Hd -2 -Ni 40 -Nx 82.26 -Ny 65.65 -Nz 0.00 -Ne 9.999998 -Nl RTR -Nw --- -Ma 0 -Md b000000 -Ms ffff0008 -Mt 0 -Is 11.0 -Id -1.0 -It tcp -Il 0 -If 0 -Ii 0 -Iv 32 -Pn tcp -Ps 0 -Pa 0 -Pf 1 -Po 0 
r -t 0.021945225 -Hs 40 -Hd -2 -Ni 40 -Nx 82.26 -Ny 65.65 -Nz 0.00 -Ne 9.999998 -Nl AGT -Nw --- -Ma 0 -Md b000000 -Ms ffff0008 -Mt 0 -Is 11.0 -Id -1.0 -It tcp -Il 0 -If 0 -Ii 0 -Iv 32 -Pn tcp -Ps 0 -Pa 0 -Pf 1 -Po 0 
r -t 0.021945228 -Hs 35 -Hd -2 -Ni 35 -Nx 27.16 -Ny 62.95 -Nz 0.00 -Ne 9.999998 -Nl RTR -Nw --- -Ma 0 -Md b000000 -Ms ffff0008 -Mt 0 -Is 11.0 -Id -1.0 -It tcp -Il 0 -If 0 -Ii 0 -Iv 32 -Pn tcp -Ps 0 -Pa 0 -Pf 1 -Po 0 
r -t 0.021945228 -Hs 35 -Hd -2 -Ni 35 -Nx 27.16 -Ny 62.95 -Nz 0.00 -Ne 9.999998 -Nl AGT -Nw --- -Ma 0 -Md b000000 -Ms ffff0008 -Mt 0 -Is 11.0 -Id -1.0 -It tcp -Il 0 -If 0 -Ii 0 -Iv 32 -Pn tcp -Ps 0 -Pa 0 -Pf 1 -Po 0 
r -t 0.021945231 -Hs 4 -Hd -2 -Ni 4 -Nx 11.70 -Ny 4.99 -Nz 0.00 -Ne 9.999998 -Nl RTR -Nw --- -Ma 0 -Md b000000 -Ms ffff0008 -Mt 0 -Is 11.0 -Id -1.0 -It tcp -Il 0 -If 0 -Ii 0 -Iv 32 -Pn tcp -Ps 0 -Pa 0 -Pf 1 -Po 0 
r -t 0.021945231 -Hs 4 -Hd -2 -Ni 4 -Nx 11.70 -Ny 4.99 -Nz 0.00 -Ne 9.999998 -Nl AGT -Nw --- -Ma 0 -Md b000000 -Ms ffff0008 -Mt 0 -Is 11.0 -Id -1.0 -It tcp -Il 0 -If 0 -Ii 0 -Iv 32 -Pn tcp -Ps 0 -Pa 0 -Pf 1 -Po 0 
r -t 0.021945239 -Hs 38 -Hd -2 -Ni 38 -Nx 5.59 -Ny 30.32 -Nz 0.00 -Ne 9.999998 -Nl RTR -Nw --- -Ma 0 -Md b000000 -Ms ffff0008 -Mt 0 -Is 11.0 -Id -1.0 -It tcp -Il 0 -If 0 -Ii 0 -Iv 32 -Pn tcp -Ps 0 -Pa 0 -Pf 1 -Po 0 
r -t 0.021945239 -Hs 38 -Hd -2 -Ni 38 -Nx 5.59 -Ny 30.32 -Nz 0.00 -Ne 9.999998 -Nl AGT -Nw --- -Ma 0 -Md b000000 -Ms ffff0008 -Mt 0 -Is 11.0 -Id -1.0 -It tcp -Il 0 -If 0 -Ii 0 -Iv 32 -Pn tcp -Ps 0 -Pa 0 -Pf 1 -Po 0 
r -t 0.021945242 -Hs 2 -Hd -2 -Ni 2 -Nx 41.92 -Ny 75.24 -Nz 0.00 -Ne 9.999998 -Nl RTR -Nw --- -Ma 0 -Md b000000 -Ms ffff0008 -Mt 0 -Is 11.0 -Id -1.0 -It tcp -Il 0 -If 0 -Ii 0 -Iv 32 -Pn tcp -Ps 0 -Pa 0 -Pf 1 -Po 0 
r -t 0.021945242 -Hs 2 -Hd -2 -Ni 2 -Nx 41.92 -Ny 75.24 -Nz 0.00 -Ne 9.999998 -Nl AGT -Nw --- -Ma 0 -Md b000000 -Ms ffff0008 -Mt 0 -Is 11.0 -Id -1.0 -It tcp -Il 0 -If 0 -Ii 0 -Iv 32 -Pn tcp -Ps 0 -Pa 0 -Pf 1 -Po 0 
r -t 0.021945244 -Hs 34 -Hd -2 -Ni 34 -Nx 10.68 -Ny 51.28 -Nz 0.00 -Ne 9.999998 -Nl RTR -Nw --- -Ma 0 -Md b000000 -Ms ffff0008 -Mt 0 -Is 11.0 -Id -1.0 -It tcp -Il 0 -If 0 -Ii 0 -Iv 32 -Pn tcp -Ps 0 -Pa 0 -Pf 1 -Po 0 
r -t 0.021945244 -Hs 34 -Hd -2 -Ni 34 -Nx 10.68 -Ny 51.28 -Nz 0.00 -Ne 9.999998 -Nl AGT -Nw --- -Ma 0 -Md b000000 -Ms ffff0008 -Mt 0 -Is 11.0 -Id -1.0 -It tcp -Il 0 -If 0 -Ii 0 -Iv 32 -Pn tcp -Ps 0 -Pa 0 -Pf 1 -Po 0 
r -t 0.021945271 -Hs 21 -Hd -2 -Ni 21 -Nx 53.90 -Ny 86.32 -Nz 0.00 -Ne 9.999998 -Nl RTR -Nw --- -Ma 0 -Md b000000 -Ms ffff0008 -Mt 0 -Is 11.0 -Id -1.0 -It tcp -Il 0 -If 0 -Ii 0 -Iv 32 -Pn tcp -Ps 0 -Pa 0 -Pf 1 -Po 0 
r -t 0.021945271 -Hs 21 -Hd -2 -Ni 21 -Nx 53.90 -Ny 86.32 -Nz 0.00 -Ne 9.999998 -Nl AGT -Nw --- -Ma 0 -Md b000000 -Ms ffff0008 -Mt 0 -Is 11.0 -Id -1.0 -It tcp -Il 0 -If 0 -Ii 0 -Iv 32 -Pn tcp -Ps 0 -Pa 0 -Pf 1 -Po 0 
r -t 0.021945283 -Hs 14 -Hd -2 -Ni 14 -Nx 94.55 -Ny 78.14 -Nz 0.00 -Ne 9.999998 -Nl RTR -Nw --- -Ma 0 -Md b000000 -Ms ffff0008 -Mt 0 -Is 11.0 -Id -1.0 -It tcp -Il 0 -If 0 -Ii 0 -Iv 32 -Pn tcp -Ps 0 -Pa 0 -Pf 1 -Po 0 
r -t 0.021945283 -Hs 14 -Hd -2 -Ni 14 -Nx 94.55 -Ny 78.14 -Nz 0.00 -Ne 9.999998 -Nl AGT -Nw --- -Ma 0 -Md b000000 -Ms ffff0008 -Mt 0 -Is 11.0 -Id -1.0 -It tcp -Il 0 -If 0 -Ii 0 -Iv 32 -Pn tcp -Ps 0 -Pa 0 -Pf 1 -Po 0 
r -t 0.021945291 -Hs 25 -Hd -2 -Ni 25 -Nx 45.56 -Ny 91.37 -Nz 0.00 -Ne 9.999998 -Nl RTR -Nw --- -Ma 0 -Md b000000 -Ms ffff0008 -Mt 0 -Is 11.0 -Id -1.0 -It tcp -Il 0 -If 0 -Ii 0 -Iv 32 -Pn tcp -Ps 0 -Pa 0 -Pf 1 -Po 0 
r -t 0.021945291 -Hs 25 -Hd -2 -Ni 25 -Nx 45.56 -Ny 91.37 -Nz 0.00 -Ne 9.999998 -Nl AGT -Nw --- -Ma 0 -Md b000000 -Ms ffff0008 -Mt 0 -Is 11.0 -Id -1.0 -It tcp -Il 0 -If 0 -Ii 0 -Iv 32 -Pn tcp -Ps 0 -Pa 0 -Pf 1 -Po 0 
r -t 0.021945304 -Hs 10 -Hd -2 -Ni 10 -Nx 10.59 -Ny 78.90 -Nz 0.00 -Ne 9.999998 -Nl RTR -Nw --- -Ma 0 -Md b000000 -Ms ffff0008 -Mt 0 -Is 11.0 -Id -1.0 -It tcp -Il 0 -If 0 -Ii 0 -Iv 32 -Pn tcp -Ps 0 -Pa 0 -Pf 1 -Po 0 
r -t 0.021945304 -Hs 10 -Hd -2 -Ni 10 -Nx 10.59 -Ny 78.90 -Nz 0.00 -Ne 9.999998 -Nl AGT -Nw --- -Ma 0 -Md b000000 -Ms ffff0008 -Mt 0 -Is 11.0 -Id -1.0 -It tcp -Il 0 -If 0 -Ii 0 -Iv 32 -Pn tcp -Ps 0 -Pa 0 -Pf 1 -Po 0 
r -t 0.021945323 -Hs 30 -Hd -2 -Ni 30 -Nx 84.29 -Ny 97.23 -Nz 0.00 -Ne 9.999998 -Nl RTR -Nw --- -Ma 0 -Md b000000 -Ms ffff0008 -Mt 0 -Is 11.0 -Id -1.0 -It tcp -Il 0 -If 0 -Ii 0 -Iv 32 -Pn tcp -Ps 0 -Pa 0 -Pf 1 -Po 0 
r -t 0.021945323 -Hs 30 -Hd -2 -Ni 30 -Nx 84.29 -Ny 97.23 -Nz 0.00 -Ne 9.999998 -Nl AGT -Nw --- -Ma 0 -Md b000000 -Ms ffff0008 -Mt 0 -Is 11.0 -Id -1.0 -It tcp -Il 0 -If 0 -Ii 0 -Iv 32 -Pn tcp -Ps 0 -Pa 0 -Pf 1 -Po 0 
r -t 0.021945324 -Hs 9 -Hd -2 -Ni 9 -Nx 4.08 -Ny 81.02 -Nz 0.00 -Ne 9.999998 -Nl RTR -Nw --- -Ma 0 -Md b000000 -Ms ffff0008 -Mt 0 -Is 11.0 -Id -1.0 -It tcp -Il 0 -If 0 -Ii 0 -Iv 32 -Pn tcp -Ps 0 -Pa 0 -Pf 1 -Po 0 
r -t 0.021945324 -Hs 9 -Hd -2 -Ni 9 -Nx 4.08 -Ny 81.02 -Nz 0.00 -Ne 9.999998 -Nl AGT -Nw --- -Ma 0 -Md b000000 -Ms ffff0008 -Mt 0 -Is 11.0 -Id -1.0 -It tcp -Il 0 -If 0 -Ii 0 -Iv 32 -Pn tcp -Ps 0 -Pa 0 -Pf 1 -Po 0 
r -t 0.021945332 -Hs 39 -Hd -2 -Ni 39 -Nx 12.46 -Ny 90.87 -Nz 0.00 -Ne 9.999998 -Nl RTR -Nw --- -Ma 0 -Md b000000 -Ms ffff0008 -Mt 0 -Is 11.0 -Id -1.0 -It tcp -Il 0 -If 0 -Ii 0 -Iv 32 -Pn tcp -Ps 0 -Pa 0 -Pf 1 -Po 0 
r -t 0.021945332 -Hs 39 -Hd -2 -Ni 39 -Nx 12.46 -Ny 90.87 -Nz 0.00 -Ne 9.999998 -Nl AGT -Nw --- -Ma 0 -Md b000000 -Ms ffff0008 -Mt 0 -Is 11.0 -Id -1.0 -It tcp -Il 0 -If 0 -Ii 0 -Iv 32 -Pn tcp -Ps 0 -Pa 0 -Pf 1 -Po 0 
r -t 0.021945338 -Hs 15 -Hd -2 -Ni 15 -Nx 99.88 -Ny 94.48 -Nz 0.00 -Ne 9.999998 -Nl RTR -Nw --- -Ma 0 -Md b000000 -Ms ffff0008 -Mt 0 -Is 11.0 -Id -1.0 -It tcp -Il 0 -If 0 -Ii 0 -Iv 32 -Pn tcp -Ps 0 -Pa 0 -Pf 1 -Po 0 
r -t 0.021945338 -Hs 15 -Hd -2 -Ni 15 -Nx 99.88 -Ny 94.48 -Nz 0.00 -Ne 9.999998 -Nl AGT -Nw --- -Ma 0 -Md b000000 -Ms ffff0008 -Mt 0 -Is 11.0 -Id -1.0 -It tcp -Il 0 -If 0 -Ii 0 -Iv 32 -Pn tcp -Ps 0 -Pa 0 -Pf 1 -Po 0 
r -t 0.021945373 -Hs 1 -Hd -2 -Ni 1 -Nx 3.34 -Ny 99.51 -Nz 0.00 -Ne 9.999998 -Nl RTR -Nw --- -Ma 0 -Md b000000 -Ms ffff0008 -Mt 0 -Is 11.0 -Id -1.0 -It tcp -Il 0 -If 0 -Ii 0 -Iv 32 -Pn tcp -Ps 0 -Pa 0 -Pf 1 -Po 0 
r -t 0.021945373 -Hs 1 -Hd -2 -Ni 1 -Nx 3.34 -Ny 99.51 -Nz 0.00 -Ne 9.999998 -Nl AGT -Nw --- -Ma 0 -Md b000000 -Ms ffff0008 -Mt 0 -Is 11.0 -Id -1.0 -It tcp -Il 0 -If 0 -Ii 0 -Iv 32 -Pn tcp -Ps 0 -Pa 0 -Pf 1 -Po 0 
s -t 0.062370491 -Hs 30 -Hd -2 -Ni 30 -Nx 84.29 -Ny 97.23 -Nz 0.00 -Ne 9.999673 -Nl AGT -Nw --- -Ma 0 -Md 1e000000 -Ms 0 -Mt 0 -Is 30.0 -Id -1.0 -It tcp -Il 0 -If 0 -Ii 1 -Iv 32 -Pn tcp -Ps 0 -Pa 0 -Pf 0 -Po 0 
r -t 0.062370491 -Hs 30 -Hd -2 -Ni 30 -Nx 84.29 -Ny 97.23 -Nz 0.00 -Ne 9.999673 -Nl RTR -Nw --- -Ma 0 -Md 1e000000 -Ms 0 -Mt 0 -Is 30.0 -Id -1.0 -It tcp -Il 0 -If 0 -Ii 1 -Iv 32 -Pn tcp -Ps 0 -Pa 0 -Pf 0 -Po 0 
s -t 0.062370491 -Hs 30 -Hd -2 -Ni 30 -Nx 84.29 -Ny 97.23 -Nz 0.00 -Ne 9.999673 -Nl RTR -Nw --- -Ma 0 -Md 1e000000 -Ms 0 -Mt 0 -Is 30.0 -Id -1.0 -It tcp -Il 0 -If 0 -Ii 1 -Iv 32 -Pn tcp -Ps 0 -Pa 0 -Pf 0 -Po 0 
s -t 0.062395491 -Hs 30 -Hd -2 -Ni 30 -Nx 84.29 -Ny 97.23 -Nz 0.00 -Ne 9.999673 -Nl MAC -Nw --- -Ma 0 -Md 1e000000 -Ms ffff0008 -Mt 0 -Is 30.0 -Id -1.0 -It tcp -Il 20 -If 0 -Ii 1 -Iv 32 -Pn tcp -Ps 0 -Pa 0 -Pf 0 -Po 0 
N -t 0.062396 -n 15 -e 9.999671
N -t 0.062396 -n 14 -e 9.999671
N -t 0.062396 -n 40 -e 9.999671
N -t 0.062396 -n 21 -e 9.999671
N -t 0.062396 -n 23 -e 9.999671
N -t 0.062396 -n 8 -e 9.999671
N -t 0.062396 -n 31 -e 9.999671
N -t 0.062396 -n 27 -e 9.999671
N -t 0.062396 -n 25 -e 9.999671
N -t 0.062396 -n 36 -e 9.999671
N -t 0.062396 -n 6 -e 9.999671
N -t 0.062396 -n 2 -e 9.999671
N -t 0.062396 -n 12 -e 9.999671
N -t 0.062396 -n 37 -e 9.999671
N -t 0.062396 -n 7 -e 9.999671
N -t 0.062396 -n 0 -e 99.999920
N -t 0.062396 -n 5 -e 9.999671
N -t 0.062396 -n 33 -e 9.999671
N -t 0.062396 -n 35 -e 9.999671
N -t 0.062396 -n 24 -e 9.999671
N -t 0.062396 -n 28 -e 9.999671
N -t 0.062396 -n 39 -e 9.999671
N -t 0.062396 -n 20 -e 9.999671
N -t 0.062396 -n 10 -e 9.999671
N -t 0.062396 -n 19 -e 9.999671
N -t 0.062396 -n 16 -e 9.999671
N -t 0.062396 -n 18 -e 9.999671
N -t 0.062396 -n 17 -e 9.999671
N -t 0.062396 -n 11 -e 9.999673
N -t 0.062396 -n 1 -e 9.999671
N -t 0.062396 -n 9 -e 9.999671
N -t 0.062396 -n 13 -e 9.999671
N -t 0.062396 -n 29 -e 9.999671