V -t * -v 1.0a5 -a 0
A -t * -n 1 -p 0 -o 0x7fffffff -c 30 -a 1
A -t * -h 1 -m 1073741823 -s 0
<<<<<<< HEAD
+ -t 0.130612715 -s 7 -d -1 -p tcp -e 1 -c 2 -a 0 -i 0 -k AGT 
- -t 0.130612715 -s 7 -d -1 -p tcp -e 1 -c 2 -a 0 -i 0 -k AGT
h -t 0.130612715 -s 7 -d -1 -p tcp -e 1 -c 2 -a 0 -i 0 -k AGT
r -t 0.130612715 -s 7 -d -1 -p tcp -e 1 -c 2 -a 0 -i 0 -k RTR
+ -t 0.130612715 -s 7 -d -1 -p tcp -e 1 -c 2 -a 0 -i 0 -k RTR 
- -t 0.130612715 -s 7 -d -1 -p tcp -e 1 -c 2 -a 0 -i 0 -k RTR
h -t 0.130612715 -s 7 -d -1 -p tcp -e 1 -c 2 -a 0 -i 0 -k RTR
+ -t 0.130637715 -s 7 -d -1 -p tcp -e 21 -c 2 -a 0 -i 0 -k MAC 
- -t 0.130637715 -s 7 -d -1 -p tcp -e 21 -c 2 -a 0 -i 0 -k MAC
h -t 0.130637715 -s 7 -d -1 -p tcp -e 21 -c 2 -a 0 -i 0 -k MAC
r -t 0.130721786 -s 5 -d -1 -p tcp -e 1 -c 2 -a 0 -i 0 -k MAC
r -t 0.130721837 -s 1 -d -1 -p tcp -e 1 -c 2 -a 0 -i 0 -k MAC
r -t 0.130721869 -s 0 -d -1 -p tcp -e 1 -c 2 -a 0 -i 0 -k MAC
r -t 0.130721875 -s 6 -d -1 -p tcp -e 1 -c 2 -a 0 -i 0 -k MAC
r -t 0.130721930 -s 3 -d -1 -p tcp -e 1 -c 2 -a 0 -i 0 -k MAC
r -t 0.130721991 -s 4 -d -1 -p tcp -e 1 -c 2 -a 0 -i 0 -k MAC
r -t 0.130722003 -s 2 -d -1 -p tcp -e 1 -c 2 -a 0 -i 0 -k MAC
r -t 0.130746786 -s 5 -d -1 -p tcp -e 1 -c 2 -a 0 -i 0 -k RTR
r -t 0.130746786 -s 5 -d -1 -p tcp -e 1 -c 2 -a 0 -i 0 -k AGT
r -t 0.130746837 -s 1 -d -1 -p tcp -e 1 -c 2 -a 0 -i 0 -k RTR
r -t 0.130746837 -s 1 -d -1 -p tcp -e 1 -c 2 -a 0 -i 0 -k AGT
r -t 0.130746869 -s 0 -d -1 -p tcp -e 1 -c 2 -a 0 -i 0 -k RTR
r -t 0.130746869 -s 0 -d -1 -p tcp -e 1 -c 2 -a 0 -i 0 -k AGT
r -t 0.130746875 -s 6 -d -1 -p tcp -e 1 -c 2 -a 0 -i 0 -k RTR
r -t 0.130746875 -s 6 -d -1 -p tcp -e 1 -c 2 -a 0 -i 0 -k AGT
r -t 0.130746930 -s 3 -d -1 -p tcp -e 1 -c 2 -a 0 -i 0 -k RTR
r -t 0.130746930 -s 3 -d -1 -p tcp -e 1 -c 2 -a 0 -i 0 -k AGT
r -t 0.130746991 -s 4 -d -1 -p tcp -e 1 -c 2 -a 0 -i 0 -k RTR
r -t 0.130746991 -s 4 -d -1 -p tcp -e 1 -c 2 -a 0 -i 0 -k AGT
r -t 0.130747003 -s 2 -d -1 -p tcp -e 1 -c 2 -a 0 -i 0 -k RTR
r -t 0.130747003 -s 2 -d -1 -p tcp -e 1 -c 2 -a 0 -i 0 -k AGT
+ -t 0.348257591 -s 5 -d -1 -p tcp -e 1 -c 2 -a 0 -i 1 -k AGT 
- -t 0.348257591 -s 5 -d -1 -p tcp -e 1 -c 2 -a 0 -i 1 -k AGT
h -t 0.348257591 -s 5 -d -1 -p tcp -e 1 -c 2 -a 0 -i 1 -k AGT
r -t 0.348257591 -s 5 -d -1 -p tcp -e 1 -c 2 -a 0 -i 1 -k RTR
+ -t 0.348257591 -s 5 -d -1 -p tcp -e 1 -c 2 -a 0 -i 1 -k RTR 
- -t 0.348257591 -s 5 -d -1 -p tcp -e 1 -c 2 -a 0 -i 1 -k RTR
h -t 0.348257591 -s 5 -d -1 -p tcp -e 1 -c 2 -a 0 -i 1 -k RTR
+ -t 0.348282591 -s 5 -d -1 -p tcp -e 21 -c 2 -a 0 -i 1 -k MAC 
- -t 0.348282591 -s 5 -d -1 -p tcp -e 21 -c 2 -a 0 -i 1 -k MAC
h -t 0.348282591 -s 5 -d -1 -p tcp -e 21 -c 2 -a 0 -i 1 -k MAC
r -t 0.348366642 -s 1 -d -1 -p tcp -e 1 -c 2 -a 0 -i 1 -k MAC
r -t 0.348366728 -s 0 -d -1 -p tcp -e 1 -c 2 -a 0 -i 1 -k MAC
r -t 0.348366763 -s 3 -d -1 -p tcp -e 1 -c 2 -a 0 -i 1 -k MAC
r -t 0.348366779 -s 6 -d -1 -p tcp -e 1 -c 2 -a 0 -i 1 -k MAC
r -t 0.348366856 -s 2 -d -1 -p tcp -e 1 -c 2 -a 0 -i 1 -k MAC
r -t 0.348366863 -s 4 -d -1 -p tcp -e 1 -c 2 -a 0 -i 1 -k MAC
r -t 0.348391642 -s 1 -d -1 -p tcp -e 1 -c 2 -a 0 -i 1 -k RTR
r -t 0.348391642 -s 1 -d -1 -p tcp -e 1 -c 2 -a 0 -i 1 -k AGT
r -t 0.348391728 -s 0 -d -1 -p tcp -e 1 -c 2 -a 0 -i 1 -k RTR
r -t 0.348391728 -s 0 -d -1 -p tcp -e 1 -c 2 -a 0 -i 1 -k AGT
r -t 0.348391763 -s 3 -d -1 -p tcp -e 1 -c 2 -a 0 -i 1 -k RTR
r -t 0.348391763 -s 3 -d -1 -p tcp -e 1 -c 2 -a 0 -i 1 -k AGT
r -t 0.348391779 -s 6 -d -1 -p tcp -e 1 -c 2 -a 0 -i 1 -k RTR
r -t 0.348391779 -s 6 -d -1 -p tcp -e 1 -c 2 -a 0 -i 1 -k AGT
r -t 0.348391856 -s 2 -d -1 -p tcp -e 1 -c 2 -a 0 -i 1 -k RTR
r -t 0.348391856 -s 2 -d -1 -p tcp -e 1 -c 2 -a 0 -i 1 -k AGT
r -t 0.348391863 -s 4 -d -1 -p tcp -e 1 -c 2 -a 0 -i 1 -k RTR
r -t 0.348391863 -s 4 -d -1 -p tcp -e 1 -c 2 -a 0 -i 1 -k AGT
+ -t 0.410741853 -s 2 -d -1 -p tcp -e 1 -c 2 -a 0 -i 2 -k AGT 
- -t 0.410741853 -s 2 -d -1 -p tcp -e 1 -c 2 -a 0 -i 2 -k AGT
h -t 0.410741853 -s 2 -d -1 -p tcp -e 1 -c 2 -a 0 -i 2 -k AGT
r -t 0.410741853 -s 2 -d -1 -p tcp -e 1 -c 2 -a 0 -i 2 -k RTR
+ -t 0.410741853 -s 2 -d -1 -p tcp -e 1 -c 2 -a 0 -i 2 -k RTR 
- -t 0.410741853 -s 
=======
+ -t 0.006249547 -s 6 -d -1 -p tcp -e 1 -c 2 -a 0 -i 0 -k AGT 
- -t 0.006249547 -s 6 -d -1 -p tcp -e 1 -c 2 -a 0 -i 0 -k AGT
h -t 0.006249547 -s 6 -d -1 -p tcp -e 1 -c 2 -a 0 -i 0 -k AGT
r -t 0.006249547 -s 6 -d -1 -p tcp -e 1 -c 2 -a 0 -i 0 -k RTR
+ -t 0.006249547 -s 6 -d -1 -p tcp -e 1 -c 2 -a 0 -i 0 -k RTR 
- -t 0.006249547 -s 6 -d -1 -p tcp -e 1 -c 2 -a 0 -i 0 -k RTR
h -t 0.006249547 -s 6 -d -1 -p tcp -e 1 -c 2 -a 0 -i 0 -k RTR
+ -t 0.006274547 -s 6 -d -1 -p tcp -e 21 -c 2 -a 0 -i 0 -k MAC 
- -t 0.006274547 -s 6 -d -1 -p tcp -e 21 -c 2 -a 0 -i 0 -k MAC
h -t 0.006274547 -s 6 -d -1 -p tcp -e 21 -c 2 -a 0 -i 0 -k MAC
r -t 0.006358571 -s 27 -d -1 -p tcp -e 1 -c 2 -a 0 -i 0 -k MAC
r -t 0.006358575 -s 11 -d -1 -p tcp -e 1 -c 2 -a 0 -i 0 -k MAC
r -t 0.006358591 -s 29 -d -1 -p tcp -e 1 -c 2 -a 0 -i 0 -k MAC
r -t 0.006358612 -s 43 -d -1 -p tcp -e 1 -c 2 -a 0 -i 0 -k MAC
r -t 0.006358616 -s 5 -d -1 -p tcp -e 1 -c 2 -a 0 -i 0 -k MAC
r -t 0.006358628 -s 2 -d -1 -p tcp -e 1 -c 2 -a 0 -i 0 -k MAC
r -t 0.006358633 -s 34 -d -1 -p tcp -e 1 -c 2 -a 0 -i 0 -k MAC
r -t 0.006358639 -s 24 -d -1 -p tcp -e 1 -c 2 -a 0 -i 0 -k MAC
r -t 0.006358641 -s 19 -d -1 -p tcp -e 1 -c 2 -a 0 -i 0 -k MAC
r -t 0.006358641 -s 31 -d -1 -p tcp -e 1 -c 2 -a 0 -i 0 -k MAC
r -t 0.006358646 -s 37 -d -1 -p tcp -e 1 -c 2 -a 0 -i 0 -k MAC
r -t 0.006358646 -s 14 -d -1 -p tcp -e 1 -c 2 -a 0 -i 0 -k MAC
r -t 0.006358647 -s 10 -d -1 -p tcp -e 1 -c 2 -a 0 -i 0 -k MAC
r -t 0.006358652 -s 0 -d -1 -p tcp -e 1 -c 2 -a 0 -i 0 -k MAC
r -t 0.006358660 -s 30 -d -1 -p tcp -e 1 -c 2 -a 0 -i 0 -k MAC
r -t 0.006358665 -s 8 -d -1 -p tcp -e 1 -c 2 -a 0 -i 0 -k MAC
r -t 0.006358667 -s 40 -d -1 -p tcp -e 1 -c 2 -a 0 -i 0 -k MAC
r -t 0.006358672 -s 41 -d -1 -p tcp -e 1 -c 2 -a 0 -i 0 -k MAC
r -t 0.006358675 -s 38 -d -1 -p tcp -e 1 -c 2 -a 0 -i 0 -k MAC
r -t 0.006358685 -s 36 -d -1 -p tcp -e 1 -c 2 -a 0 -i 0 -k MAC
r -t 0.006358689 -s 25 -d -1 -p tcp -e 1 -c 2 -a 0 -i 0 -k MAC
r -t 0.006358696 -s 23 -d -1 -p tcp -e 1 -c 2 -a 0 -i 0 -k MAC
r -t 0.006358701 -s 18 -d -1 -p tcp -e 1 -c 2 -a 0 -i 0 -k MAC
r -t 0.006358707 -s 12 -d -1 -p tcp -e 1 -c 2 -a 0 -i 0 -k MAC
r -t 0.006358708 -s 3 -d -1 -p tcp -e 1 -c 2 -a 0 -i 0 -k MAC
r -t 0.006358712 -s 9 -d -1 -p tcp -e 1 -c 2 -a 0 -i 0 -k MAC
r -t 0.006358720 -s 33 -d -1 -p tcp -e 1 -c 2 -a 0 -i 0 -k MAC
r -t 0.006358729 -s 17 -d -1 -p tcp -e 1 -c 2 -a 0 -i 0 -k MAC
r -t 0.006358741 -s 28 -d -1 -p tcp -e 1 -c 2 -a 0 -i 0 -k MAC
r -t 0.006358742 -s 4 -d -1 -p tcp -e 1 -c 2 -a 0 -i 0 -k MAC
r -t 0.006358745 -s 44 -d -1 -p tcp -e 1 -c 2 -a 0 -i 0 -k MAC
r -t 0.006358747 -s 7 -d -1 -p tcp -e 1 -c 2 -a 0 -i 0 -k MAC
r -t 0.006358755 -s 21 -d -1 -p tcp -e 1 -c 2 -a 0 -i 0 -k MAC
r -t 0.006358756 -s 42 -d -1 -p tcp -e 1 -c 2 -a 0 -i 0 -k MAC
r -t 0.006358759 -s 1 -d -1 -p tcp -e 1 -c 2 -a 0 -i 0 -k MAC
r -t 0.006358760 -s 39 -d -1 -p tcp -e 1 -c 2 -a 0 -i 0 -k MAC
r -t 0.006358781 -s 32 -d -1 -p tcp -e 1 -c 2 -a 0 -i 0 -k MAC
r -t 0.006358784 -s 13 -d -1 -p tcp -e 1 -c 2 -a 0 -i 0 -k MAC
r -t 0.006358784 -s 16 -d -1 -p tcp -e 1 -c 2 -a 0 -i 0 -k MAC
r -t 0.006358791 -s 15 -d -1 -p tcp -e 1 -c 2 -a 0 -i 0 -k MAC
r -t 0.006358798 -s 26 -d -1 -p tcp -e 1 -c 2 -a 0 -i 0 -k MAC
r -t 0.006358804 -s 20 -d -1 -p tcp -e 1 -c 2 -a 0 -i 0 -k MAC
r -t 0.006358828 -s 22 -d -1 -p tcp -e 1 -c 2 -a 0 -i 0 -k MAC
r -t 0.006358834 -s 35 -d -1 -p tcp -e 1 -c 2 -a 0 -i 0 -k MAC
r -t 0.006383571 -s 27 -d -1 -p tcp -e 1 -c 2 -a 0 -i 0 -k RTR
r -t 0.006383571 -s 27 -d -1 -p tcp -e 1 -c 2 -a 0 -i 0 -k AGT
r -t 0.006383575 -s 11 -d -1 -p tcp -e 1 -c 2 -a 0 -i 0 -k RTR
r -t 0.006383575 -s 11 -d -1 -p tcp -e 1 -c 2 -a 0 -i 0 -k AGT
r -t 0.006383591 -s 29 -d -1 -p tcp -e 1 -c 2 -a 0 -i 0 -k RTR
r -t 0.006383591 -s 29 -d -1 -p tcp -e 1 -c 2 -a 0 -i 0 -k AGT
r -t 0.006383612 -s 43 -d -1 -p tcp -e 1 -c 2 -a 0 -i 0 -k RTR
r -t 0.006383612 -s 43 -d -1 -p tcp -e 1 -c 2 -a 0 -i 0 -k AGT
r -t 0.006383616 -s 5 -d -1 -p tcp -e 1 -c 2 -a 0 -i 0 -k RTR
r -t 0.006383616 -s 5 -d -1 -p tcp -e 1 -c 2 -a 0 -i 0 -k AGT
r -t 0.006383628 -s 2 -d -1 -p tcp -e 1 -c 2 -a 0 -i 0 -k RTR
r -t 0.006383628 -s 2 -d -1 -p tcp -e 1 -c 2 -a 0 -i 0 -k AGT
r -t 0.006383633 -s 34 -d -1 -p tcp -e 1 -c 2 -a 0 -i 0 -k RTR
r -t 0.006383633 -s 34 -d -1 -p tcp -e 1 -c 2 -a 0 -i 0 -k AGT
r -t 0.006383639 -s 24 -d -1 -p tcp -e 1 -c 2 -a 0 -i 0 -k RTR
r -t 0.006383639 -s 24 -d -1 -p tcp -e 1 -c 2 -a 0 -i 0 -k AGT
r -t 0.006383641 -s 19 -d -1 -p tcp -e 1 -c 2 -a 0 -i 0 -k RTR
r -t 0.006383641 -s 19 -d -1 -p tcp -e 1 -c 2 -a 0 -i 0 -k AGT
r -t 0.006383641 -s 31 -d -1 -p tcp -e 1 -c 2 -a 0 -i 0 -k RTR
r -t 0.006383641 -s 31 -d -1 -p tcp -e 1 -c 2 -a 0 -i 0 -k AGT
r -t 0.006383646 -s 37 -d -1 -p tcp -e 1 -c 2 -a 0 -i 0 -k RTR
r -t 0.006383646 -s 37 -d -1 -p tcp -e 1 -c 2 -a 0 -i 0 -k AGT
r -t 0.006383646 -s 14 -d -1 -p tcp -e 1 -c 2 -a 0 -i 0 -k RTR
r -t 0.006383646 -s 14 -d -1 -p tcp -e 1 -c 2 -a 0 -i 0 -k AGT
r -t 0.006383647 -s 10 -d -1 -p tcp -e 1 -c 2 -a 0 -i 0 -k RTR
r -t 0.006383647 -s 10 -d -1 -p tcp -e 1 -c 2 -a 0 -i 0 -k AGT
r -t 0.006383652 -s 0 -d -1 -p tcp -e 1 -c 2 -a 0 -i 0 -k RTR
r -t 0.006383652 -s 0 -d -1 -p tcp -e 1 -c 2 -a 0 -i 0 -k AGT
r -t 0.006383660 -s 30 -d -1 -p tcp -e 1 -c 2 -a 0 -i 0 -k RTR
r -t 0.006383660 -s 30 -d -1 -p tcp -e 1 -c 2 -a 0 -i 0 -k AGT
r -t 0.006383665 -s 8 -d -1 -p tcp -e 1 -c 2 -a 0 -i 0 -k RTR
r -t 0.006383665 -s 8 -d -1 -p tcp -e 1 -c 2 -a 0 -i 0 -k AGT
r -t 0.006383667 -s 40 -d -1 -p tcp -e 1 -c 2 -a 0 -i 0 -k RTR
r -t 0.006383667 -s 40 -d -1 -p tcp -e 1 -c 2 -a 0 -i 0 -k AGT
r -t 0.006383672 -s 41 -d -1 -p tcp -e 1 -c 2 -a 0 -i 0 -k RTR
r -t 0.006383672 -s 41 -d -1 -p tcp -e 1 -c 2 -a 0 -i 0 -k AGT
r -t 0.006383675 -s 38 -d -1 -p tcp -e 1 -c 2 -a 0 -i 0 -k RTR
r -t 0.006383675 -s 38 -d -1 -p tcp -e 1 -c 2 -a 0 -i 0 -k AGT
r -t 0.006383685 -s 36 -d -1 -p tcp -e 1 -c 2 -a 0 -i 0 -k RTR
r -t 0.006383685 -s 36 -d -1 -p tcp -e 1 -c 2 -a 0 -i 0 -k AGT
r -t 0.006383689 -s 25 -d -1 -p tcp -e 1 -c 2 -a 0 -i 0 -k RTR
r -t 0.006383689 -s 25 -d -1 -p tcp -e 1 -c 2 -a 0 -i 0 -k AGT
r -t 0.006383696 -s 23 -d -1 -p tcp -e 1 -c 2 -a 0 -i 0 -k RTR
r -t 0.006383696 -s 23 -d -1 -p tcp -e 1 -c 2 -a 0 -i 0 -k AGT
r -t 0.006383701 -s 18 -d -1 -p tcp -e 1 -c 2 -a 0 -i 0 -k RTR
r -t 0.006383701 -s 18 -d -1 -p tcp -e 1 -c 2 -a 0 -i 0 -k AGT
r -t 0.006383707 -s 12 -d -1 -p tcp -e 1 -c 2 -a 0 -i 0 -k RTR
r -t 0.006383707 -s 12 -d -1 -p tcp -e 1 -c 2 -a 0 -i 0 -k AGT
r -t 0.006383708 -s 3 -d -1 -p tcp -e 1 -c 2 -a 0 -i 0 -k RTR
r -t 0.006383708 -s 3 -d -1 -p tcp -e 1 -c 2 -a 0 -i 0 -k AGT
r -t 0.006383712 -s 9 -d -1 -p tcp -e 1 -c 2 -a 0 -i 0 -k RTR
r -t 0.006383712 -s 9 -d -1 -p tcp -e 1 -c 2 -a 0 -i 0 -k AGT
r -t 0.006383720 -s 33 -d -1 -p tcp -e 1 -c 2 -a 0 -i 0 -k RTR
r -t 0.006383720 -s 33 -d -1 -p tcp -e 1 -c 2 -a 0 -i 0 -k AGT
r -t 0.006383729 -s 17 -d -1 -p tcp -e 1 -c 2 -a 0 -i 0 -k RTR
r -t 0.006383729 -s 17 -d -1 -p tcp -e 1 -c 2 -a 0 -i 0 -k AGT
r -t 0.006383741 -s 28 -d -1 -p tcp -e 1 -c 2 -a 0 -i 0 -k RTR
r -t 0.006383741 -s 28 -d -1 -p tcp -e 1 -c 2 -a 0 -i 0 -k AGT
r -t 0.006383742 -s 4 -d -1 -p tcp -e 1 -c 2 -a 0 -i 0 -k RTR
r -t 0.006383742 -s 4 -d -1 -p tcp -e 1 -c 2 -a 0 -i 0 -k AGT
r -t 0.006383745 -s 44 -d -1 -p tcp -e 1 -c 2 -a 0 -i 0 -k RTR
r -t 0.006383745 -s 44 -d -1 -p tcp -e 1 -c 2 -a 0 -i 0 -k AGT
r -t 0.006383747 -s 7 -d -1 -p tcp -e 1 -c 2 -a 0 -i 0 -k RTR
r -t 0.006383747 -s 7 -d -1 -p tcp -e 1 -c 2 -a 0 -i 0 -k AGT
r -t 0.006383755 -s 21 -d -1 -p tcp -e 1 -c 2 -a 0 -i 0 -k RTR
r -t 0.006383755 -s 21 -d -1 -p tcp -e 1 -c 2 -a 0 -i 0 -k AGT
r -t 0.006383756 -s 42 -d -1 -p tcp -e 1 -c 2 -a 0 -i 0 -k RTR
r -t 0.006383756 -s 42 -d -1 -p tcp -e 1 -c 2 -a 0 -i 0 -k AGT
r -t 0.006383759 -s 1 -d -1 -p tcp -e 1 -c 2 -a 0 -i 0 -k RTR
r -t 0.006383759 -s 1 -d -1 -p tcp -e 1 -c 2 -a 0 -i 0 -k AGT
r -t 0.006383760 -s 39 -d -1 -p tcp -e 1 -c 2 -a 0 -i 0 -k RTR
r -t 0.006383760 -s 39 -d -1 -p tcp -e 1 -c 2 -a 0 -i 0 -k AGT
r -t 0.006383781 -s 32 -d -1 -p tcp -e 1 -c 2 -a 0 -i 0 -k RTR
r -t 0.006383781 -s 32 -d -1 -p tcp -e 1 -c 2 -a 0 -i 0 -k AGT
r -t 0.006383784 -s 13 -d -1 -p tcp -e 1 -c 2 -a 0 -i 0 -k RTR
r -t 0.006383784 -s 13 -d -1 -p tcp -e 1 -c 2 -a 0 -i 0 -k AGT
r -t 0.006383784 -s 16 -d -1 -p tcp -e 1 -c 2 -a 0 -i 0 -k RTR
r -t 0.006383784 -s 16 -d -1 -p tcp -e 1 -c 2 -a 0 -i 0 -k AGT
r -t 0.006383791 -s 15 -d -1 -p tcp -e 1 -c 2 -a 0 -i 0 -k RTR
r -t 0.006383791 -s 15 -d -1 -p tcp -e 1 -c 2 -a 0 -i 0 -k AGT
r -t 0.006383798 -s 26 -d -1 -p tcp -e 1 -c 2 -a 0 -i 0 -k RTR
r -t 0.006383798 -s 26 -d -1 -p tcp -e 1 -c 2 -a 0 -i 0 -k AGT
r -t 0.006383804 -s 20 -d -1 -p tcp -e 1 -c 2 -a 0 -i 0 -k RTR
r -t 0.006383804 -s 20 -d -1 -p tcp -e 1 -c 2 -a 0 -i 0 -k AGT
r -t 0.006383828 -s 22 -d -1 -p tcp -e 1 -c 2 -a 0 -i 0 -k RTR
r -t 0.006383828 -s 22 -d -1 -p tcp -e 1 -c 2 -a 0 -i 0 -k AGT
r -t 0.006383834 -s 35 -d -1 -p tcp -e 1 -c 2 -a 0 -i 0 -k RTR
r -t 0.006383834 -s 35 -d -1 -p tcp -e 1 -c 2 -a 0 -i 0 -k AGT
+ -t 0.120734556 -s 34 -d -1 -p tcp -e 1 -c 2 -a 0 -i 1 -k AGT 
- -t 0.120734556 -s 34 -d -1 -p tcp -e 1 -c 2 -a 0 -i 1 -k AGT
h -t 0.120734556 -s 34 -d -1 -p tcp -e 1 -c 2 -a 0 -i 1 -k AGT
r -t 0.120734556 -s 34 -d -1 -p tcp -e 1 -c 2 -a 0 -i 1 -k RTR
+ -t 0.120734556 -s 34 -d -1 -p tcp -e 1 -c 2 -a 0 -i 1 -k RTR 
- -t 0.120734556 -s 34 -d -1 -p tcp -e 1 -c 2 -a 0 -i 1 -k RTR
h -t 0.120734556 -s 34 -d -1 -p tcp -e 1 -c 2 -a 0 -i 1 -k RTR
+ -t 0.120759556 -s 34 -d -1 -p tcp -e 21 -c 2 -a 0 -i 1 -k MAC 
- -t 0.120759556 -s 34 -d -1 -p tcp -e 21 -c 2 -a 0 -i 1 -k MAC
h -t 0.120759556 -s 34 -d -1 -p tcp -e 21 -c 2 -a 0 -i 1 -k MAC
r -t 0.120843561 -s 2 -d -1 -p tcp -e 1 -c 2 -a 0 -i 1 -k MAC
r -t 0.120843590 -s 5 -d -1 -p tcp -e 1 -c 2 -a 0 -i 1 -k MAC
r -t 0.120843613 -s 29 -d -1 -p tcp -e 1 -c 2 -a 0 -i 1 -k MAC
r -t 0.120843626 -s 37 -d -1 -p tcp -e 1 -c 2 -a 0 -i 1 -k MAC
r -t 0.120843653 -s 19 -d -1 -p tcp -e 1 -c 2 -a 0 -i 1 -k MAC
r -t 0.120843655 -s 18 -d -1 -p tcp -e 1 -c 2 -a 0 -i 1 -k MAC
r -t 0.120843665 -s 27 -d -1 -p tcp -e 1 -c 2 -a 0 -i 1 -k MAC
r -t 0.120843669 -s 11 -d -1 -p tcp -e 1 -c 2 -a 0 -i 1 -k MAC
r -t 0.120843675 -s 30 -d -1 -p tcp -e 1 -c 2 -a 0 -i 1 -k MAC
r -t 0.120843678 -s 38 -d -1 -p tcp -e 1 -c 2 -a 0 -i 1 -k MAC
r -t 0.120843681 -s 3 -d -1 -p tcp -e 1 -c 2 -a 0 -i 1 -k MAC
r -t 0.120843681 -s 43 -d -1 -p tcp -e 1 -c 2 -a 0 -i 1 -k MAC
r -t 0.120843697 -s 7 -d -1 -p tcp -e 1 -c 2 -a 0 -i 1 -k MAC
r -t 0.120843698 -s 33 -d -1 -p tcp -e 1 -c 2 -a 0 -i 1 -k MAC
r -t 0.120843705 -s 24 -d -1 -p tcp -e 1 -c 2 -a 0 -i 1 -k MAC
r -t 0.120843713 -s 28 -d -1 -p tcp -e 1 -c 2 -a 0 -i 1 -k MAC
r -t 0.120843713 -s 14 -d -1 -p tcp -e 1 -c 2 -a 0 -i 1 -k MAC
r -t 0.120843721 -s 0 -d -1 -p tcp -e 1 -c 2 -a 0 -i 1 -k MAC
r -t 0.120843722 -s 12 -d -1 -p tcp -e 1 -c 2 -a 0 -i 1 -k MAC
r -t 0.120843726 -s 41 -d -1 -p tcp -e 1 -c 2 -a 0 -i 1 -k MAC
r -t 0.120843731 -s 31 -d -1 -p tcp -e 1 -c 2 -a 0 -i 1 -k MAC
r -t 0.120843732 -s 10 -d -1 -p tcp -e 1 -c 2 -a 0 -i 1 -k MAC
r -t 0.120843732 -s 8 -d -1 -p tcp -e 1 -c 2 -a 0 -i 1 -k MAC
r -t 0.120843750 -s 21 -d -1 -p tcp -e 1 -c 2 -a 0 -i 1 -k MAC
r -t 0.120843750 -s 40 -d -1 -p tcp -e 1 -c 2 -a 0 -i 1 -k MAC
r -t 0.120843761 -s 1 -d -1 -p tcp -e 1 -c 2 -a 0 -i 1 -k MAC
r -t 0.120843772 -s 25 -d -1 -p tcp -e 1 -c 2 -a 0 -i 1 -k MAC
r -t 0.120843774 -s 23 -d -1 -p tcp -e 1 -c 2 -a 0 -i 1 -k MAC
r -t 0.120843775 -s 36 -d -1 -p tcp -e 1 -c 2 -a 0 -i 1 -k MAC
r -t 0.120843778 -s 39 -d -1 -p tcp -e 1 -c 2 -a 0 -i 1 -k MAC
r -t 0.120843804 -s 9 -d -1 -p tcp -e 1 -c 2 -a 0 -i 1 -k MAC
r -t 0.120843805 -s 42 -d -1 -p tcp -e 1 -c 2 -a 0 -i 1 -k MAC
r -t 0.120843813 -s 4 -d -1 -p tcp -e 1 -c 2 -a 0 -i 1 -k MAC
r -t 0.120843815 -s 17 -d -1 -p tcp -e 1 -c 2 -a 0 -i 1 -k MAC
r -t 0.120843824 -s 44 -d -1 -p tcp -e 1 -c 2 -a 0 -i 1 -k MAC
r -t 0.120843833 -s 15 -d -1 -p tcp -e 1 -c 2 -a 0 -i 1 -k MAC
r -t 0.120843852 -s 16 -d -1 -p tcp -e 1 -c 2 -a 0 -i 1 -k MAC
r -t 0.120843855 -s 13 -d -1 -p tcp -e 1 -c 2 -a 0 -i 1 -k MAC
r -t 0.120843859 -s 32 -d -1 -p tcp -e 1 -c 2 -a 0 -i 1 -k MAC
r -t 0.120843859 -s 22 -d -1 -p tcp -e 1 -c 2 -a 0 -i 1 -k MAC
r -t 0.120843869 -s 20 -d -1 -p tcp -e 1 -c 2 -a 0 -i 1 -k MAC
r -t 0.120843879 -s 35 -d -1 -p tcp -e 1 -c 2 -a 0 -i 1 -k MAC
r -t 0.120843881 -s 26 -d -1 -p tcp -e 1 -c 2 -a 0 -i 1 -k MAC
r -t 0.120868561 -s 2 -d -1 -p tcp -e 1 -c 2 -a 0 -i 1 -k RTR
r -t 0.120868561 -s 2 -d -1 -p tcp -e 1 -c 2 -a 0 -i 1 -k AGT
r -t 0.120868590 -s 5 -d -1 -p tcp -e 1 -c 2 -a 0 -i 1 -k RTR
r -t 0.120868590 -s 5 -d -1 -p tcp -e 1 -c 2 -a 0 -i 1 -k AGT
r -t 0.120868613 -s 29 -d -1 -p tcp -e 1 -c 2 -a 0 -i 1 -k RTR
r -t 0.120868613 -s 29 -d -1 -p tcp -e 1 -c 2 -a 0 -i 1 -k AGT
r -t 0.120868626 -s 37 -d -1 -p tcp -e 1 -c 2 -a 0 -i 1 -k RTR
r -t 0.120868626 -s 37 -d -1 -p tcp -e 1 -c 2 -a 0 -i 1 -k AGT
r -t 0.120868653 -s 19 -d -1 -p tcp -e 1 -c 2 -a 0 -i 1 -k RTR
r -t 0.120868653 -s 19 -d -1 -p tcp -e 1 -c 2 -a 0 -i 1 -k AGT
r -t 0.120868655 -s 18 -d -1 -p tcp -e 1 -c 2 -a 0 -i 1 -k RTR
r -t 0.120868655 -s 18 -d -1 -p tcp -e 1 -c 2 -a 0 -i 1 -k AGT
r -t 0.120868665 -s 27 -d -1 -p tcp -e 1 -c 2 -a 0 -i 1 -k RTR
r -t 0.120868665 -s 27 -d -1 -p tcp -e 1 -c 2 -a 0 -i 1 -k AGT
r -t 0.120868669 -s 11 -d -1 -p tcp -e 1 -c 2 -a 0 -i 1 -k RTR
r -t 0.120868669 -s 11 -d -1 -p tcp -e 1 -c 2 -a 0 -i 1 -k AGT
r -t 0.120868675 -s 30 -d -1 -p tcp -e 1 -c 2 -a 0 -i 1 -k RTR
r -t 0.120868675 -s 30 -d -1 -p tcp -e 1 -c 2 -a 0 -i 1 -k AGT
r -t 0.120868678 -s 38 -d -1 -p tcp -e 1 -c 2 -a 0 -i 1 -k RTR
r -t 0.120868678 -s 38 -d -1 -p tcp -e 1 -c 2 -a 0 -i 1 -k AGT
r -t 0.120868681 -s 3 -d -1 -p tcp -e 1 -c 2 -a 0 -i 1 -k RTR
r -t 0.120868681 -s 3 -d -1 -p tcp -e 1 -c 2 -a 0 -i 1 -k AGT
r -t 0.120868681 -s 43 -d -1 -p tcp -e 1 -c 2 -a 0 -i 1 -k RTR
r -t 0.120868681 -s 43 -d -1 -p tcp -e 1 -c 2 -a 0 -i 1 -k AGT
r -t 0.120868697 -s 7 -d -1 -p tcp -e 1 -c 2 -a 0 -i 1 -k RTR
r -t 0.120868697 -s 7 -d -1 -p tcp -e 1 -c 2 -a 0 -i 1 -k AGT
r -t 0.120868698 -s 33 -d -1 -p tcp -e 1 -c 2 -a 0 -i 1 -k RTR
r -t 0.120868698 -s 33 -d -1 -p tcp -e 1 -c 2 -a 0 -i 1 -k AGT
r -t 0.120868705 -s 24 -d -1 -p tcp -e 1 -c 2 -a 0 -i 1 -k RTR
r -t 0.120868705 -s 24 -d -1 -p tcp -e 1 -c 2 -a 0 -i 1 -k AGT
r -t 0.120868713 -s 28 -d -1 -p tcp -e 1 -c 2 -a 0 -i 1 -k RTR
r -t 0.120868713 -s 28 -d -1 -p tcp -e 1 -c 2 -a 0 -i 1 -k AGT
r -t 0.120868713 -s 14 -d -1 -p tcp -e 1 -c 2 -a 0 -i 1 -k RTR
r -t 0.120868713 -s 14 -d -1 -p tcp -e 1 -c 2 -a 0 -i 1 -k AGT
r -t 0.120868721 -s 0 -d -1 -p tcp -e 1 -c 2 -a 0 -i 1 -k RTR
r -t 0.120868721 -s 0 -d -1 -p tcp -e 1 -c 2 -a 0 -i 1 -k AGT
r -t 0.120868722 -s 12 -d -1 -p tcp -e 1 -c 2 -a 0 -i 1 -k RTR
r -t 0.120868722 -s 12 -d -1 -p tcp -e 1 -c 2 -a 0 -i 1 -k AGT
r -t 0.120868726 -s 41 -d -1 -p tcp -e 1 -c 2 -a 0 -i 1 -k RTR
r -t 0.120868726 -s 41 -d -1 -p tcp -e 1 -c 2 -a 0 -i 1 -k AGT
r -t 0.120868731 -s 31 -d -1 -p tcp -e 1 -c 2 -a 0 -i 1 -k RTR
r -t 0.120868731 -s 31 -d -1 -p tcp -e 1 -c 2 -a 0 -i 1 -k AGT
r -t 0.120868732 -s 10 -d -1 -p tcp -e 1 -c 2 -a 0 -i 1 -k RTR
r -t 0.120868732 -s 10 -d -1 -p tcp -e 1 -c 2 -a 0 -i 1 -k AGT
r -t 0.120868732 -s 8 -d -1 -p tcp -e 1 -c 2 -a 0 -i 1 -k RTR
r -t 0.120868732 -s 8 -d -1 -p tcp -e 1 -c 2 -a 0 -i 1 -k AGT
r -t 0.120868750 -s 21 -d -1 -p tcp -e 1 -c 2 -a 0 -i 1 -k RTR
r -t 0.120868750 -s 21 -d -1 -p tcp -e 1 -c 2 -a 0 -i 1 -k AGT
r -t 0.120868750 -s 40 -d -1 -p tcp -e 1 -c 2 -a 0 -i 1 -k RTR
r -t 0.120868750 -s 40 -d -1 -p tcp -e 1 -c 2 -a 0 -i 1 -k AGT
r -t 0.120868761 -s 1 -d -1 -p tcp -e 1 -c 2 -a 0 -i 1 -k RTR
r -t 0.120868761 -s 1 -d -1 -p tcp -e 1 -c 2 -a 0 -i 1 -k AGT
r -t 0.120868772 -s 25 -d -1 -p tcp -e 1 -c 2 -a 0 -i 1 -k RTR
r -t 0.120868772 -s 25 -d -1 -p tcp -e 1 -c 2 -a 0 -i 1 -k AGT
r -t 0.120868774 -s 23 -d -1 -p tcp -e 1 -c 2 -a 0 -i 1 -k RTR
r -t 0.120868774 -s 23 -d -1 -p tcp -e 1 -c 2 -a 0 -i 1 -k AGT
r -t 0.120868775 -s 36 -d -1 -p tcp -e 1 -c 2 -a 0 -i 1 -k RTR
r -t 0.120868775 -s 36 -d -1 -p tcp -e 1 -c 2 -a 0 -i 1 -k AGT
r -t 0.120868778 -s 39 -d -1 -p tcp -e 1 -c 2 -a 0 -i 1 -k RTR
r -t 0.120868778 -s 39 -d -1 -p tcp -e 1 -c 2 -a 0 -i 1 -k AGT
r -t 0.120868804 -s 9 -d -1 -p tcp -e 1 -c 2 -a 0 -i 1 -k RTR
r -t 0.120868804 -s 9 -d -1 -p tcp -e 1 -c 2 -a 0 -i 1 -k AGT
r -t 0.120868805 -s 42 -d -1 -p tcp -e 1 -c 2 -a 0 -i 1 -k RTR
r -t 0.120868805 -s 42 -d -1 -p tcp -e 1 -c 2 -a 0 -i 1 -k AGT
r -t 0.120868813 -s 4 -d -1 -p tcp -e 1 -c 2 -a 0 -i 1 -k RTR
r -t 0.120868813 -s 4 -d -1 -p tcp -e 1 -c 2 -a 0 -i 1 -k AGT
r -t 0.120868815 -s 17 -d -1 -p tcp -e 1 -c 2 -a 0 -i 1 -k RTR
r -t 0.120868815 -s 17 -d -1 -p tcp -e 1 -c 2 -a 0 -i 1 -k AGT
r -t 0.120868824 -s 44 -d -1 -p tcp -e 1 -c 2 -a 0 -i 1 -k RTR
r -t 0.120868824 -s 44 -d -1 -p tcp -e 1 -c 2 -a 0 -i 1 -k AGT
r -t 0.120868833 -s 15 -d -1 -p tcp -e 1 -c 2 -a 0 -i 1 -k RTR
r -t 0.120868833 -s 15 -d -1 -p tcp -e 1 -c 2 -a 0 -i 1 -k AGT
r -t 0.120868852 -s 16 -d -1 -p tcp -e 1 -c 2 -a 0 -i 1 -k RTR
r -t 0.120868852 -s 16 -d -1 -p tcp -e 1 -c 2 -a 0 -i 1 -k AGT
r -t 0.120868855 -s 13 -d -1 -p tcp -e 1 -c 2 -a 0 -i 1 -k RTR
r -t 0.120868855 -s 13 -d -1 -p tcp -e 1 -c 2 -a 0 -i 1 -k AGT
r -t 0.120868859 -s 32 -d -1 -p tcp -e 1 -c 2 -a 0 -i 1 -k RTR
r -t 0.120868859 -s 32 -d -1 -p tcp -e 1 -c 2 -a 0 -i 1 -k AGT
r -t 0.120868859 -s 22 -d -1 -p tcp -e 1 -c 2 -a 0 -i 1 -k RTR
r -t 0.120868859 -s 22 -d -1 -p tcp -e 1 -c 2 -a 0 -i 1 -k AGT
r -t 0.120868869 -s 20 -d -1 -p tcp -e 1 -c 2 -a 0 -i 1 -k RTR
r -t 0.120868869 -s 20 -d -1 -p tcp -e 1 -c 2 -a 0 -i 1 -k AGT
r -t 0.120868879 -s 35 -d -1 -p tcp -e 1 -c 2 -a 0 -i 1 -k RTR
r -t 0.120868879 -s 35 -d -1 -p tcp -e 1 -c 2 -a 0 -i 1 -k AGT
r -t 0.120868881 -s 26 -d -1 -p tcp -e 1 -c 2 -a 0 -i 1 -k RTR
r -t 0.120868881 -s 26 -d -1 -p tcp -e 1 -c 2 -a 0 -i 1 -k AGT
+ -t 0.125418208 -s 22 -d -1 -p tcp -e 1 -c 2 -a 0 -i 2 -k AGT 
- -t 0.125418208 -s 22 -d -1 -p tcp -e 1 -c 2 -a 0 -i 2 -k AGT
h -t 0.125418208 -s 22 -d -1 -p tcp -e 1 -c 2 -a 0 -i 2 -k AGT
r -t 0.125418208 -s 22 -d -1 -p tcp -e 1 -c 2 -a 0 -i 2 -k RTR
+ -t 0.125418208 -s 22 -d -1 -p tcp -e 1 -c 2 -a 0 -i 2 -k RTR 
- -t 0.125418208 -s 22 -d -1 -p tcp -e 1 -c 2 -a 0 -i 2 -k RTR
h -t 0.125418208 -s 22 -d -1 -p tcp -e 1 -c 2 -a 0 -i 2 -k RTR
+ -t 0.125443208 -s 22 -d -1 -p tcp -e 21 -c 2 -a 0 -i 2 -k MAC 
- -t 0.125443208 -s 22 -d -1 -p tcp -e 21 -c 2 -a 0 -i 2 -k MAC
h -t 0.125443208 -s 22 -d -1 -p tcp -e 21 -c 2 -a 0 -i 2 -k MAC
r -t 0.125527255 -s 15 -d -1 -p tcp -e 1 -c 2 -a 0 -i 2 -k MAC
r -t 0.125527258 -s 35 -d -1 -p tcp -e 1 -c 2 -a 0 -i 2 -k MAC
r -t 0.125527293 -s 39 -d -1 -p tcp -e 1 -c 2 -a 0 -i 2 -k MAC
r -t 0.125527294 -s 42 -d -1 -p tcp -e 1 -c 2 -a 0 -i 2 -k MAC
r -t 0.125527328 -s 1 -d -1 -p tcp -e 1 -c 2 -a 0 -i 2 -k MAC
r -t 0.125527335 -s 20 -d -1 -p tcp -e 1 -c 2 -a 0 -i 2 -k MAC
r -t 0.125527346 -s 12 -d -1 -p tcp -e 1 -c 2 -a 0 -i 2 -k MAC
r -t 0.125527347 -s 21 -d -1 -p tcp -e 1 -c 2 -a 0 -i 2 -k MAC
r -t 0.125527349 -s 16 -d -1 -p tcp -e 1 -c 2 -a 0 -i 2 -k MAC
r -t 0.125527359 -s 13 -d -1 -p tcp -e 1 -c 2 -a 0 -i 2 -k MAC
r -t 0.125527363 -s 4 -d -1 -p tcp -e 1 -c 2 -a 0 -i 2 -k MAC
r -t 0.125527390 -s 38 -d -1 -p tcp -e 1 -c 2 -a 0 -i 2 -k MAC
r -t 0.125527392 -s 30 -d -1 -p tcp -e 1 -c 2 -a 0 -i 2 -k MAC
r -t 0.125527393 -s 32 -d -1 -p tcp -e 1 -c 2 -a 0 -i 2 -k MAC
r -t 0.125527395 -s 44 -d -1 -p tcp -e 1 -c 2 -a 0 -i 2 -k MAC
r -t 0.125527395 -s 23 -d -1 -p tcp -e 1 -c 2 -a 0 -i 2 -k MAC
r -t 0.125527396 -s 0 -d -1 -p tcp -e 1 -c 2 -a 0 -i 2 -k MAC
r -t 0.125527400 -s 33 -d -1 -p tcp -e 1 -c 2 -a 0 -i 2 -k MAC
r -t 0.125527404 -s 24 -d -1 -p tcp -e 1 -c 2 -a 0 -i 2 -k MAC
r -t 0.125527406 -s 28 -d -1 -p tcp -e 1 -c 2 -a 0 -i 2 -k MAC
r -t 0.125527415 -s 19 -d -1 -p tcp -e 1 -c 2 -a 0 -i 2 -k MAC
r -t 0.125527415 -s 3 -d -1 -p tcp -e 1 -c 2 -a 0 -i 2 -k MAC
r -t 0.125527416 -s 25 -d -1 -p tcp -e 1 -c 2 -a 0 -i 2 -k MAC
r -t 0.125527421 -s 40 -d -1 -p tcp -e 1 -c 2 -a 0 -i 2 -k MAC
r -t 0.125527426 -s 26 -d -1 -p tcp -e 1 -c 2 -a 0 -i 2 -k MAC
r -t 0.125527430 -s 17 -d -1 -p tcp -e 1 -c 2 -a 0 -i 2 -k MAC
r -t 0.125527431 -s 10 -d -1 -p tcp -e 1 -c 2 -a 0 -i 2 -k MAC
r -t 0.125527442 -s 37 -d -1 -p tcp -e 1 -c 2 -a 0 -i 2 -k MAC
r -t 0.125527452 -s 18 -d -1 -p tcp -e 1 -c 2 -a 0 -i 2 -k MAC
r -t 0.125527453 -s 36 -d -1 -p tcp -e 1 -c 2 -a 0 -i 2 -k MAC
r -t 0.125527455 -s 31 -d -1 -p tcp -e 1 -c 2 -a 0 -i 2 -k MAC
r -t 0.125527460 -s 7 -d -1 -p tcp -e 1 -c 2 -a 0 -i 2 -k MAC
r -t 0.125527467 -s 9 -d -1 -p tcp -e 1 -c 2 -a 0 -i 2 -k MAC
r -t 0.125527478 -s 5 -d -1 -p tcp -e 1 -c 2 -a 0 -i 2 -k MAC
r -t 0.125527484 -s 27 -d -1 -p tcp -e 1 -c 2 -a 0 -i 2 -k MAC
r -t 0.125527491 -s 11 -d -1 -p tcp -e 1 -c 2 -a 0 -i 2 -k MAC
r -t 0.125527511 -s 2 -d -1 -p tcp -e 1 -c 2 -a 0 -i 2 -k MAC
r -t 0.125527521 -s 29 -d -1 -p tcp -e 1 -c 2 -a 0 -i 2 -k MAC
r -t 0.125527547 -s 43 -d -1 -p tcp -e 1 -c 2 -a 0 -i 2 -k MAC
r -t 0.125527575 -s 14 -d -1 -p tcp -e 1 -c 2 -a 0 -i 2 -k MAC
r -t 0.125527589 -s 8 -d -1 -p tcp -e 1 -c 2 -a 0 -i 2 -k MAC
r -t 0.125527606 -s 41 -d -1 -p tcp -e 1 -c 2 -a 0 -i 2 -k MAC
r -t 0.125552255 -s 15 -d -1 -p tcp -e 1 -c 2 -a 0 -i 2 -k RTR
r -t 0.125552255 -s 15 -d -1 -p tcp -e 1 -c 2 -a 0 -i 2 -k AGT
r -t 0.125552258 -s 35 -d -1 -p tcp -e 1 -c 2 -a 0 -i 2 -k RTR
r -t 0.125552258 -s 35 -d -1 -p tcp -e 1 -c 2 -a 0 -i 2 -k AGT
r -t 0.125552293 -s 39 -d -1 -p tcp -e 1 -c 2 -a 0 -i 2 -k RTR
r -t 0.125552293 -s 39 -d -1 -p tcp -e 1 -c 2 -a 0 -i 2 -k AGT
r -t 0.125552294 -s 42 -d -1 -p tcp -e 1 -c 2 -a 0 -i 2 -k RTR
r -t 0.125552294 -s 42 -d -1 -p tcp -e 1 -c 2 -a 0 -i 2 -k AGT
r -t 0.125552328 -s 1 -d -1 -p tcp -e 1 -c 2 -a 0 -i 2 -k RTR
r -t 0.125552328 -s 1 -d -1 -p tcp -e 1 -c 2 -a 0 -i 2 -k AGT
r -t 0.125552335 -s 20 -d -1 -p tcp -e 1 -c 2 -a 0 -i 2 -k RTR
r -t 0.125552335 -s 20 -d -1 -p tcp -e 1 -c 2 -a 0 -i 2 -k AGT
r -t 0.125552346 -s 12 -d -1 -p tcp -e 1 -c 2 -a 0 -i 2 -k RTR
r -t 0.125552346 -s 12 -d -1 -p tcp -e 1 -c 2 -a 0 -i 2 -k AGT
r -t 0.125552347 -s 21 -d -1 -p tcp -e 1 -c 2 -a 0 -i 2 -k RTR
r -t 0.125552347 -s 21 -d -1 -p tcp -e 1 -c 2 -a 0 -i 2 -k AGT
r -t 0.125552349 -s 16 -d -1 -p tcp -e 1 -c 2 -a 0 -i 2 -k RTR
r -t 0.125552349 -s 16 -d -1 -p tcp -e 1 -c 2 -a 0 -i 2 -k AGT
r -t 0.125552359 -s 13 -d -1 -p tcp -e 1 -c 2 -a 0 -i 2 -k RTR
r -t 0.125552359 -s 13 -d -1 -p tcp -e 1 -c 2 -a 0 -i 2 -k AGT
r -t 0.125552363 -s 4 -d -1 -p tcp -e 1 -c 2 -a 0 -i 2 -k RTR
r -t 0.125552363 -s 4 -d -1 -p tcp -e 1 -c 2 -a 0 -i 2 -k AGT
r -t 0.125552390 -s 38 -d -1 -p tcp -e 1 -c 2 -a 0 -i 2 -k RTR
r -t 0.125552390 -s 38 -d -1 -p tcp -e 1 -c 2 -a 0 -i 2 -k AGT
r -t 0.125552392 -s 30 -d -1 -p tcp -e 1 -c 2 -a 0 -i 2 -k RTR
r -t 0.125552392 -s 30 -d -1 -p tcp -e 1 -c 2 -a 0 -i 2 -k AGT
r -t 0.125552393 -s 32 -d -1 -p tcp -e 1 -c 2 -a 0 -i 2 -k RTR
r -t 0.125552393 -s 32 -d -1 -p tcp -e 1 -c 2 -a 0 -i 2 -k AGT
r -t 0.125552395 -s 44 -d -1 -p tcp -e 1 -c 2 -a 0 -i 2 -k RTR
r -t 0.125552395 -s 44 -d -1 -p tcp -e 1 -c 2 -a 0 -i 2 -k AGT
r -t 0.125552395 -s 23 -d -1 -p tcp -e 1 -c 2 -a 0 -i 2 -k RTR
r -t 0.125552395 -s 23 -d -1 -p tcp -e 1 -c 2 -a 0 -i 2 -k AGT
r -t 0.125552396 -s 0 -d -1 -p tcp -e 1 -c 2 -a 0 -i 2 -k RTR
r -t 0.125552396 -s 0 -d -1 -p tcp -e 1 -c 2 -a 0 -i 2 -k AGT
r -t 0.125552400 -s 33 -d -1 -p tcp -e 1 -c 2 -a 0 -i 2 -k RTR
r -t 0.125552400 -s 33 -d -1 -p tcp -e 1 -c 2 -a 0 -i 2 -k AGT
r -t 0.125552404 -s 24 -d -1 -p tcp -e 1 -c 2 -a 0 -i 2 -k RTR
r -t 0.125552404 -s 24 -d -1 -p tcp -e 1 -c 2 -a 0 -i 2 -k AGT
r -t 0.125552406 -s 28 -d -1 -p tcp -e 1 -c 2 -a 0 -i 2 -k RTR
r -t 0.125552406 -s 28 -d -1 -p tcp -e 1 -c 2 -a 0 -i 2 -k AGT
r -t 0.125552415 -s 19 -d -1 -p tcp -e 1 -c 2 -a 0 -i 2 -k RTR
r -t 0.125552415 -s 19 -d -1 -p tcp -e 1 -c 2 -a 0 -i 2 -k AGT
r -t 0.125552415 -s 3 -d -1 -p tcp -e 1 -c 2 -a 0 -i 2 -k RTR
r -t 0.125552415 -s 3 -d -1 -p tcp -e 1 -c 2 -a 0 -i 2 -k AGT
r -t 0.125552416 -s 25 -d -1 -p tcp -e 1 -c 2 -a 0 -i 2 -k RTR
r -t 0.125552416 -s 25 -d -1 -p tcp -e 1 -c 2 -a 0 -i 2 -k AGT
r -t 0.125552421 -s 40 -d -1 -p tcp -e 1 -c 2 -a 0 -i 2 -k RTR
r -t 0.125552421 -s 40 -d -1 -p tcp -e 1 -c 2 -a 0 -i 2 -k AGT
r -t 0.125552426 -s 26 -d -1 -p tcp -e 1 -c 2 -a 0 -i 2 -k RTR
r -t 0.125552426 -s 26 -d -1 -p tcp -e 1 -c 2 -a 0 -i 2 -k AGT
r -t 0.125552430 -s 17 -d -1 -p tcp -e 1 -c 2 -a 0 -i 2 -k RTR
r -t 0.125552430 -s 17 -d -1 -p tcp -e 1 -c 2 -a 0 -i 2 -k AGT
r -t 0.125552431 -s 10 -d -1 -p tcp -e 1 -c 2 -a 0 -i 2 -k RTR
r -t 0.125552431 -s 10 -d -1 -p tcp -e 1 -c 2 -a 0 -i 2 -k AGT
r -t 0.125552442 -s 37 -d -1 -p tcp -e 1 -c 2 -a 0 -i 2 -k RTR
r -t 0.125552442 -s 37 -d -1 -p tcp -e 1 -c 2 -a 0 -i 2 -k AGT
r -t 0.125552452 -s 18 -d -1 -p tcp -e 1 -c 2 -a 0 -i 2 -k RTR
r -t 0.125552452 -s 18 -d -1 -p tcp -e 1 -c 2 -a 0 -i 2 -k AGT
r -t 0.125552453 -s 36 -d -1 -p tcp -e 1 -c 2 -a 0 -i 2 -k RTR
r -t 0.125552453 -s 36 -d -1 -p tcp -e 1 -c 2 -a 0 -i 2 -k AGT
r -t 0.125552455 -s 31 -d -1 -p tcp -e 1 -c 2 -a 0 -i 2 -k RTR
r -t 0.125552455 -s 31 -d -1 -p tcp -e 1 -c 2 -a 0 -i 2 -k AGT
r -t 0.125552460 -s 7 -d -1 -p tcp -e 1 -c 2 -a 0 -i 2 -k RTR
r -t 0.125552460 -s 7 -d -1 -p tcp -e 1 -c 2 -a 0 -i 2 -k AGT
r -t 0.125552467 -s 9 -d -1 -p tcp -e 1 -c 2 -a 0 -i 2 -k RTR
r -t 0.125552467 -s 9 -d -1 -p tcp -e 1 -c 2 -a 0 -i 2 -k AGT
r -t 0.125552478 -s 5 -d -1 -p tcp -e 1 -c 2 -a 0 -i 2 -k RTR
r -t 0.125552478 -s 5 -d -1 -p tcp -e 1 -c 2 -a 0 -i 2 -k AGT
r -t 0.125552484 -s 27 -d -1 -p tcp -e 1 -c 2 -a 0 -i 2 -k RTR
r -t 0.125552484 -s 27 -d -1 -p tcp -e 1 -c 2 -a 0 -i 2 -k AGT
r -t 0.125552491 -s 11 -d -1 -p tcp -e 1 -c 2 -a 0 -i 2 -k RTR
r -t 0.125552491 -s 11 -d -1 -p tcp -e 1 -c 2 -a 0 -i 2 -k AGT
r -t 0.125552511 -s 2 -d -1 -p tcp -e 1 -c 2 -a 0 -i 2 -k RTR
r -t 0.125552511 -s 2 -d -1 -p tcp -e 1 -c 2 -a 0 -i 2 -k AGT
r -t 0.125552521 -s 29 -d -1 -p tcp -e 1 -c 2 -a 0 -i 2 -k RTR
r -t 0.125552521 -s 29 -d -1 -p tcp -e 1 -c 2 -a 0 -i 2 -k AGT
r -t 0.125552547 -s 43 -d -1 -p tcp -e 1 -c 2 -a 0 -i 2 -k RTR
r -t 0.125552547 -s 43 -d -1 -p tcp -e 1 -c 2 -a 0 -i 2 -k AGT